! TOUCHSTONE file generated by CST MICROWAVE STUDIO
! Date and time: Tue Jan 20 14:16:15 2026
! Project name: CSRR_WR28_Lorentz.cst
! Header version: 2018
! Port assignment regex: !\s*Touchstone port\s*([0-9]+)\s*=\s*(CST MWS port|CST DS port)\s*([0-9]+|Zmin|Zmax)\s*\(\"(.*)\"\)(\s*mode\s*([0-9]+))?.*
! Touchstone port assignment:
! Touchstone port 1 = CST MWS port 1 ("Port1")
! Touchstone port 2 = CST MWS port 2 ("Port2")
# GHz S MA R 50
30                      1.265758      -0.1835607        0.1571379       -4.960372        0.1571376        -4.96074         1.265758      -0.1834976
30.01                  0.8442824       -3.263686        0.1407222       -119.4665         0.140723       -119.4663        0.8442818       -3.263664
30.02                   1.261656      -0.3139636        0.1511274       -6.987249        0.1511268       -6.987441         1.261657      -0.3139218
30.03                  0.8449626       -3.283108        0.1414631       -119.0999        0.1414649       -119.0997        0.8449611       -3.282975
30.04                   1.267103       -0.416457        0.1600502       -7.751545        0.1600503        -7.75201         1.267103      -0.4164113
30.05                  0.8425834       -3.139795        0.1377743       -119.9262        0.1377728       -119.9257        0.8425814       -3.139831
30.06                   1.269322      -0.1187801        0.1619303       -3.998088        0.1619284       -3.998048         1.269324      -0.1187751
30.07                  0.8386916        -3.22817        0.1381209        -122.253        0.1381237       -122.2511        0.8386879       -3.227891
30.08                    1.26384     -0.08064861        0.1530672       -3.782958        0.1530687        -3.78263         1.263838     -0.08070636
30.09                  0.8385924       -3.356851        0.1407465       -122.4808        0.1407479       -122.4813        0.8385944       -3.356755
30.1                     1.26631      -0.2877542        0.1575935       -6.286481        0.1575931       -6.286864          1.26631      -0.2876948
30.11                  0.8380235       -3.218972        0.1378511       -122.4781        0.1378519       -122.4769        0.8380212       -3.218877
30.12                   1.271533     -0.08897755        0.1647374       -3.571873         0.164738       -3.571723         1.271532     -0.08898665
30.13                  0.8339272       -3.171979        0.1358139       -124.7791         0.135816       -124.7784        0.8339263       -3.171854
30.14                   1.267188       0.1190167        0.1575371       -1.137749        0.1575389       -1.137722         1.267187       0.1190121
30.15                  0.8320445       -3.338832        0.1390533        -126.035        0.1390529       -126.0355        0.8320446       -3.338889
30.16                    1.26583     -0.09126739        0.1555542       -3.858799        0.1555546       -3.858799          1.26583      -0.0912753
30.17                  0.8326057       -3.292921        0.1382209       -125.5805         0.138221       -125.5811        0.8326065       -3.292922
30.18                   1.272077     -0.05474217        0.1649978       -3.166779         0.164997        -3.16697         1.272078     -0.05472098
30.19                  0.8297052       -3.134579        0.1344251       -127.1827        0.1344259       -127.1823        0.8297044       -3.134468
30.2                    1.270977       0.2543714        0.1629769       0.5032948        0.1629761       0.5033632         1.270978       0.2543623
30.21                  0.8260821       -3.236492         0.136517       -129.4733        0.1365213       -129.4725        0.8260825       -3.236137
30.22                   1.266508       0.1485325        0.1557718      -0.7675682        0.1557734      -0.7680054         1.266506       0.1485753
30.23                  0.8263298       -3.308536        0.1381205       -129.2332        0.1381216       -129.2329        0.8263297       -3.308453
30.24                   1.271335      0.03022216        0.1632187       -2.191439        0.1632206       -2.191849         1.271333      0.03027127
30.25                  0.8253476       -3.127701        0.1341598       -129.8108        0.1341581       -129.8108        0.8253467       -3.127828
30.26                   1.274086       0.3274173         0.167342        1.299743        0.1673432        1.299688         1.274085       0.3274178
30.27                  0.8211032       -3.093299        0.1338045       -132.6065        0.1338037       -132.6077        0.8211048       -3.093427
30.28                   1.268544       0.3890267        0.1588035        2.238619        0.1588028        2.237977         1.268544       0.3891127
30.29                  0.8198121       -3.228657        0.1370782       -133.2279        0.1370773       -133.2271        0.8198096       -3.228623
30.3                    1.270183       0.1841168        0.1608717      -0.3356534        0.1608722      -0.3360359         1.270182       0.1841552
30.31                  0.8203051       -3.123203        0.1346213       -132.9548        0.1346183       -132.9541        0.8203022       -3.123302
30.32                   1.275749       0.3682477         0.169461        1.728913        0.1694602        1.728954          1.27575       0.3682483
30.33                  0.8169404       -2.956385        0.1316641       -135.4491         0.131664       -135.4476        0.8169374       -2.956237
30.34                   1.271646       0.5928256        0.1638438        4.543961         0.163845        4.544139         1.271645       0.5927936
30.35                  0.8138172       -3.052539        0.1349885       -137.2838        0.1349881       -137.2835        0.8138165       -3.052522
30.36                   1.269511       0.4022918        0.1596846        2.381424        0.1596854        2.381274          1.26951       0.4023073
30.37                  0.8144503       -3.070371         0.135096       -136.7415        0.1350934       -136.7404        0.8144467       -3.070399
30.38                   1.275708       0.4209086        0.1690554        2.340463        0.1690566        2.341105         1.275707       0.4208232
30.39                  0.8130099       -2.849796        0.1306989        -138.239        0.1306988       -138.2395        0.8130106       -2.849854
30.4                    1.275015        0.733963        0.1691611        5.925441        0.1691618        5.925701         1.275015       0.7339278
30.41                  0.8089246       -2.818467        0.1322219       -141.1027        0.1322219       -141.1032        0.8089254       -2.818528
30.42                   1.270029       0.6574992        0.1610831         5.48872        0.1610836        5.488912         1.270029       0.6574725
30.43                  0.8082651       -2.921639        0.1348373       -141.0711         0.134838       -141.0719        0.8082669       -2.921696
30.44                    1.27442       0.5261932        0.1669886        3.629237        0.1669888        3.629155          1.27442       0.5262019
30.45                  0.8086472       -2.756901        0.1309154         -141.38        0.1309164        -141.381        0.8086495       -2.756954
30.46                    1.27755       0.8155449        0.1729301        6.634487        0.1729299        6.633858          1.27755        0.815633
30.47                  0.8051403       -2.581343        0.1295781       -144.5162         0.129576       -144.5156        0.8051378       -2.581381
30.48                   1.271924       0.9095157        0.1651677        8.283589        0.1651677        8.283507         1.271924       0.9095267
30.49                  0.8026047       -2.667602        0.1334679       -145.6549         0.133467       -145.6542         0.802603       -2.667557
30.5                    1.272856       0.7022078         0.165003         5.81307        0.1650044        5.813097         1.272854       0.7022007
30.51                  0.8035741       -2.626247         0.131686       -145.1757        0.1316829       -145.1764        0.8035727       -2.626468
30.52                   1.278471       0.8687433        0.1741784        7.155181        0.1741777        7.155495         1.278471       0.8687104
30.53                  0.8019224       -2.374847        0.1278582       -147.6308        0.1278598       -147.6313        0.8019242       -2.374828
30.54                   1.274707        1.120091        0.1705741        10.29738        0.1705746        10.29678         1.274706        1.120169
30.55                  0.7981787       -2.345792        0.1311173       -150.1179         0.131112       -150.1179        0.7981742       -2.345987
30.56                   1.271962       0.9427128        0.1649026        8.724027        0.1649012        8.724532         1.271964       0.9426638
30.57                  0.7981541        -2.40796        0.1322108       -149.6597         0.132212        -149.659        0.7981539       -2.407812
30.58                   1.277774       0.9380428        0.1732218        8.007305        0.1732226        8.007359         1.277773        0.938033
30.59                  0.7985467       -2.190215        0.1274646       -150.8492        0.1274625       -150.8493         0.798545       -2.190303
30.6                    1.277445        1.263189        0.1754003        11.45873           0.1754        11.45917         1.277445        1.263132
30.61                  0.7951322       -2.013726        0.1282949       -154.1703        0.1282962       -154.1707        0.7951338        -2.01373
30.62                    1.27219        1.217683        0.1674002        11.80634           0.1674        11.80627          1.27219        1.217695
30.63                  0.7932642       -2.086193         0.131839       -154.5538        0.1318387       -154.5541        0.7932641       -2.086246
30.64                   1.276037        1.069175        0.1713453        9.664467        0.1713442        9.664401         1.276039        1.069192
30.65                  0.7945842       -1.986248        0.1282646       -154.5862        0.1282653       -154.5849        0.7945833       -1.986025
30.66                   1.279333         1.34707        0.1784701        12.08389        0.1784712          12.084         1.279332        1.347051
30.67                  0.7929369       -1.712058        0.1259236       -157.8146        0.1259227       -157.8143        0.7929356       -1.712043
30.68                   1.273636        1.475344        0.1719612        14.32114        0.1719623        14.32164         1.273635        1.475269
30.69                  0.7897401       -1.688084        0.1301701       -159.5126         0.130172       -159.5145        0.7897432       -1.688321
30.7                    1.273935        1.273456        0.1699337        12.20683        0.1699324        12.20645         1.273936        1.273516
30.71                  0.7903741       -1.712368        0.1294067       -158.9607        0.1294077       -158.9603        0.7903746       -1.712257
30.72                   1.279582        1.418258        0.1791821        12.80566        0.1791817        12.80523         1.279582        1.418322
30.73                  0.7908131       -1.451949        0.1249408       -161.2292        0.1249392       -161.2277        0.7908105       -1.451729
30.74                   1.276023        1.687163        0.1774791        16.02205        0.1774803        16.02233         1.276022        1.687115
30.75                  0.7877102       -1.275047        0.1277189       -164.2453        0.1277199        -164.246        0.7877115       -1.275128
30.76                   1.272611        1.529686         0.170763        15.16654        0.1707628        15.16603         1.272611        1.529757
30.77                  0.7866898       -1.334719        0.1298882       -163.9741        0.1298855       -163.9728        0.7866865       -1.334542
30.78                   1.278078        1.507704        0.1777741        13.98174        0.1777752        13.98208         1.278077        1.507653
30.79                  0.7883986       -1.191102         0.125279         -164.82        0.1252794       -164.8204         0.788399       -1.191161
30.8                    1.278081        1.835408        0.1817921        17.07795        0.1817926        17.07762          1.27808        1.835455
30.81                  0.7868297      -0.9084744        0.1252086        -168.406        0.1252051       -168.4055        0.7868259      -0.9084036
30.82                   1.272436        1.818377        0.1741899        18.09831         0.174191        18.09865         1.272435        1.818322
30.83                  0.7842877      -0.8879711        0.1293941       -169.2364        0.1293924        -169.237        0.7842861      -0.8880644
30.84                   1.275661        1.663068        0.1761198        15.98917        0.1761201        15.98936         1.275661        1.663038
30.85                  0.7856635      -0.8756353        0.1266715       -169.0278        0.1266693       -169.0283        0.7856615      -0.8757374
30.86                   1.279203        1.929919        0.1841992        17.77923        0.1841988        17.77961         1.279204        1.929872
30.87                  0.7862896      -0.5904459        0.1235497       -172.1683        0.1235487       -172.1686        0.7862886      -0.5904912
30.88                   1.273507        2.081364        0.1792463        20.32568        0.1792461        20.32616         1.273507        2.081304
30.89                  0.7836152      -0.4279229        0.1276675       -174.4084        0.1276679       -174.4089        0.7836154      -0.4280078
30.9                    1.273008        1.882573        0.1754546        18.68631        0.1754543        18.68686         1.273008        1.882511
30.91                  0.7834435      -0.4779371        0.1279557       -173.8578        0.1279598       -173.8589         0.783447      -0.4781293
30.92                   1.278449         2.01003        0.1840847        18.70595        0.1840838        18.70536          1.27845        2.010123
30.93                  0.7855467      -0.3006504        0.1233284       -175.7335        0.1233269       -175.7324         0.785545      -0.3004676
30.94                   1.275091        2.298068        0.1843558        21.87931        0.1843561        21.87941         1.275091        2.298055
30.95                  0.7842044     -0.02281741        0.1254755       -179.0851        0.1254744       -179.0847        0.7842032     -0.02271092
30.96                   1.271123        2.162687        0.1773088        21.71537         0.177309        21.71563         1.271123        2.162649
30.97                  0.7824301     -0.01601238        0.1285813       -179.1377        0.1285811       -179.1368        0.7824303     -0.01584611
30.98                   1.276203        2.123635         0.182727        20.23478        0.1827289        20.23516         1.276201        2.123574
30.99                   0.784508      0.02212036        0.1245525       -179.6472        0.1245526       -179.6483        0.7845074       0.0219735
31                      1.276488        2.448845        0.1882115        22.85067        0.1882124        22.85097         1.276487        2.448798
31.01                  0.7853194       0.3158908        0.1235937        176.7711        0.1235949        176.7698        0.7853195       0.3156434
31.02                   1.270496        2.455228        0.1814264        24.37777        0.1814265        24.37768         1.270496        2.455248
31.03                  0.7831502        0.453936        0.1280037        175.4869        0.1280022        175.4858        0.7831474       0.4538096
31.04                   1.272971        2.292877          0.18135        22.48521        0.1813492        22.48553         1.272972        2.292842
31.05                  0.7838561       0.4085318        0.1263253        175.8561        0.1263251        175.8558        0.7838553       0.4085346
31.06                   1.276548        2.547802        0.1897095         23.6861        0.1897092        23.68663         1.276548        2.547719
31.07                  0.7863295       0.6059255         0.122771         173.075        0.1227731        173.0744        0.7863311       0.6058221
31.08                   1.270843        2.722764        0.1864918        26.41019        0.1864916        26.41065         1.270844        2.722695
31.09                    0.78526       0.8618285        0.1264886         170.464        0.1264939        170.4631         0.785264       0.8615638
31.1                    1.269619        2.531742         0.181549        25.33549        0.1815485        25.33498         1.269619        2.531808
31.11                  0.7843006       0.8457255        0.1278339        170.8598        0.1278346        170.8593         0.784301       0.8456393
31.12                   1.274817         2.64014         0.189161        24.87696        0.1891603        24.87675         1.274817        2.640178
31.13                  0.7870052        0.898603        0.1234783        169.4386        0.1234786        169.4386        0.7870054       0.8985913
31.14                   1.271626        2.937701        0.1911526        27.81789        0.1911525        27.81781         1.271626        2.937716
31.15                  0.7879595        1.183442        0.1248051        166.0212        0.1248056        166.0206        0.7879591        1.183356
31.16                   1.267059         2.82099        0.1841756        28.25867        0.1841745        28.25865          1.26706           2.821
31.17                  0.7863069        1.283725        0.1284699        165.6198        0.1284721        165.6201        0.7863088        1.283654
31.18                   1.271539        2.766951        0.1877324        26.71266         0.187732        26.71212          1.27154        2.767044
31.19                  0.7878171        1.236385        0.1253583        165.4295        0.1253562        165.4303        0.7878156        1.236576
31.2                     1.27195        3.089086        0.1941919        28.83911        0.1941925         28.8392         1.271949        3.089071
31.21                  0.7905369        1.440641        0.1237532        162.1591        0.1237529        162.1586        0.7905356        1.440623
31.22                   1.265674        3.119738        0.1886471        30.74452        0.1886462         30.7446         1.265675        3.119727
31.23                  0.7896941        1.660399        0.1280705        160.5134        0.1280715        160.5146        0.7896967         1.66056
31.24                   1.267408        2.954251        0.1869447        29.21544        0.1869466        29.21533         1.267406        2.954243
31.25                  0.7895212        1.617536        0.1275367        160.9067         0.127537        160.9056        0.7895204        1.617419
31.26                   1.270928        3.194461        0.1950761        29.87168         0.195076        29.87143         1.270928        3.194491
31.27                  0.7927352        1.679725        0.1239498        158.6354        0.1239486         158.635        0.7927338        1.679717
31.28                   1.265244        3.386694         0.193602        32.59302        0.1936024        32.59289         1.265243        3.386714
31.29                  0.7937484        1.942634         0.127011        155.8752        0.1270083        155.8739        0.7937443        1.942631
31.3                    1.263315        3.204384        0.1880368        32.08286        0.1880351        32.08333         1.263317         3.20433
31.31                  0.7926229        1.996018        0.1291788        156.0271        0.1291796         156.028        0.7926249        1.996082
31.32                   1.268138        3.293115        0.1942548        31.31302        0.1942558        31.31335         1.268137        3.293064
31.33                  0.7948646        1.943517        0.1254783        155.0633        0.1254815        155.0623        0.7948649        1.943267
31.34                   1.265074        3.594351        0.1976513        33.91455        0.1976506        33.91411         1.265074        3.594414
31.35                  0.7976861        2.143005        0.1260059         151.856        0.1260049        151.8557        0.7976854        2.143041
31.36                   1.259997        3.494765        0.1912365         34.8381        0.1912358        34.83796         1.259998        3.494792
31.37                  0.7970151        2.313457        0.1298651        151.1222        0.1298626        151.1224        0.7970138        2.313611
31.38                   1.263803        3.426314        0.1929883        33.39264        0.1929884        33.39316         1.263803        3.426242
31.39                  0.7975797         2.24018        0.1278134        151.1391        0.1278156         151.139        0.7975804        2.240062
31.4                     1.26424        3.738341        0.1998686        35.00833        0.1998688        35.00829          1.26424        3.738349
31.41                  0.8011254         2.30689        0.1258082        148.3775        0.1258088        148.3768        0.8011243        2.306823
31.42                   1.257735        3.786911        0.1957108        37.11541        0.1957098        37.11536         1.257736        3.786924
31.43                  0.8020547         2.53528        0.1296857        146.5265        0.1296849        146.5268        0.8020551        2.535391
31.44                   1.258674        3.618622        0.1927575        36.02547        0.1927575        36.02582         1.258674        3.618561
31.45                  0.8014284        2.536904         0.130144        146.8358        0.1301457        146.8358        0.8014296        2.536801
31.46                   1.261966        3.839507        0.2001033        36.24435        0.2001035        36.24452         1.261965        3.839477
31.47                  0.8042544        2.480402        0.1268524          145.14        0.1268556        145.1398        0.8042551        2.480161
31.48                   1.256282        4.041927        0.2001625        38.83243        0.2001621        38.83212         1.256282        4.041978
31.49                  0.8069781        2.667804        0.1291227        142.4707        0.1291243        142.4707        0.8069785        2.667676
31.5                    1.253657        3.868604         0.194465        38.84529        0.1944648        38.84481         1.253657        3.868693
31.51                  0.8064236        2.781119         0.131803        142.3655         0.131802         142.365        0.8064218        2.781155
31.52                   1.257935         3.93698        0.1990725        37.94468        0.1990713        37.94451         1.257936        3.937024
31.53                  0.8076579        2.680448        0.1289881        141.7898        0.1289869        141.7903        0.8076581        2.680584
31.54                   1.254928        4.235217        0.2034202        40.15116        0.2034206        40.15114         1.254928        4.235229
31.55                  0.8113306        2.750547        0.1288585        139.0041        0.1288573        139.0038        0.8113294        2.750689
31.56                    1.24941        4.150578        0.1979141        41.42767        0.1979144        41.42803          1.24941        4.150502
31.57                  0.8120568         2.93592        0.1325849        138.0264        0.1325877        138.0257        0.8120562        2.935728
31.58                    1.25245        4.068826         0.198088        40.22326         0.198087        40.22295         1.252451        4.068865
31.59                  0.8119037         2.88667         0.131586        138.1387        0.1315861        138.1383         0.811903        2.886643
31.6                    1.252806        4.364747        0.2048545         41.3677        0.2048531        41.36751         1.252807        4.364776
31.61                  0.8151602        2.830351        0.1294757        135.9731        0.1294751        135.9731        0.8151599        2.830354
31.62                   1.246149        4.425843        0.2021281        43.52903        0.2021262         43.5289         1.246151        4.425882
31.63                   0.817601         3.00004        0.1327079        134.0837        0.1327058         134.085         0.817603        3.000195
31.64                   1.246291        4.256166        0.1984188         42.9002        0.1984196        42.90047          1.24629        4.256138
31.65                  0.8171392        3.053238        0.1339238        134.2474        0.1339252        134.2471        0.8171384        3.053178
31.66                   1.249209        4.453419        0.2045861        42.81347        0.2045851        42.81335          1.24921        4.453436
31.67                  0.8189658        2.932728        0.1311873        133.0738        0.1311876        133.0742        0.8189668        2.932723
31.68                   1.243554          4.6578        0.2058945         45.1596        0.2058937        45.15949         1.243554        4.657829
31.69                  0.8225461        3.006466        0.1326845        130.6756        0.1326846        130.6762        0.8225469        3.006483
31.7                    1.240307        4.492564        0.2005185        45.60202         0.200518        45.60177         1.240307        4.492611
31.71                  0.8229935        3.142351        0.1355583        130.3375        0.1355577        130.3381        0.8229947        3.142433
31.72                   1.243918         4.53882        0.2034989        44.72404        0.2034985        44.72362         1.243919        4.538885
31.73                  0.8233106        3.047751        0.1336826        130.0374        0.1336783        130.0383        0.8233125        3.048088
31.74                   1.240933        4.824989        0.2083017        46.50954        0.2083027        46.51009         1.240932        4.824879
31.75                  0.8268205        2.999258        0.1331021        127.7714        0.1331034        127.7721        0.8268223        2.999169
31.76                   1.235083         4.75118        0.2039063        47.99634        0.2039078        47.99615         1.235082        4.751194
31.77                  0.8288317        3.145692        0.1364521        126.6607         0.136452          126.66        0.8288301        3.145683
31.78                   1.237296        4.656565        0.2028518        47.11418        0.2028512        47.11399         1.237297         4.65661
31.79                  0.8284806        3.139419        0.1363438        126.7738        0.1363411         126.774        0.8284808        3.139626
31.8                    1.237468         4.92834        0.2090039        47.86151         0.209004        47.86192         1.237468        4.928278
31.81                  0.8308044        3.010004        0.1343829        125.1801        0.1343828        125.1806        0.8308055        3.010037
31.82                   1.230752        4.994475        0.2075792        49.94717        0.2075803        49.94738         1.230751         4.99443
31.83                  0.8341023        3.086455        0.1369006        123.3969        0.1369015        123.3968        0.8341018        3.086421
31.84                   1.230124        4.823261        0.2035894         49.7465        0.2035895        49.74653         1.230124         4.82325
31.85                  0.8342554         3.16923        0.1385956        123.3943        0.1385956        123.3945        0.8342561        3.169248
31.86                   1.232549        4.991525        0.2083492        49.48985        0.2083501        49.48996         1.232548        4.991491
31.87                  0.8350502        3.039886        0.1365411        122.6372        0.1365423        122.6368        0.8350492        3.039819
31.88                   1.226966        5.188385        0.2105137        51.52366        0.2105139        51.52353         1.226965        5.188397
31.89                  0.8386254        3.004738        0.1373881        120.6099        0.1373879        120.6092        0.8386238        3.004749
31.9                    1.223196        5.029761        0.2058025        52.28291        0.2058016        52.28298         1.223197        5.029767
31.91                   0.840103        3.122077        0.1401963        120.1014        0.1401959        120.1016        0.8401028         3.12213
31.92                   1.226044        5.051492        0.2073105        51.54518          0.20731        51.54537         1.226045        5.051464
31.93                  0.8399314        3.061874        0.1391887        119.9601        0.1391892        119.9609        0.8399327        3.061855
31.94                   1.223065        5.315295        0.2120641        52.92577        0.2120652        52.92573         1.223064        5.315287
31.95                  0.8426467        2.934891        0.1383937        118.2177        0.1383943        118.2173         0.842646        2.934911
31.96                   1.217022        5.247601        0.2088391        54.48641        0.2088392        54.48639         1.217022        5.247578
31.97                  0.8454756        3.011453         0.141228        117.0822        0.1412285         117.082        0.8454753        3.011427
31.98                   1.218386        5.139542        0.2069696        53.95396        0.2069697        53.95385         1.218385        5.139536