! TOUCHSTONE file generated by CST MICROWAVE STUDIO
! Date and time: Tue Jan 20 15:43:50 2026
! Project name: CSRR_WR28_Lorentz.cst
! Header version: 2018
! Port assignment regex: !\s*Touchstone port\s*([0-9]+)\s*=\s*(CST MWS port|CST DS port)\s*([0-9]+|Zmin|Zmax)\s*\(\"(.*)\"\)(\s*mode\s*([0-9]+))?.*
! Touchstone port assignment:
! Touchstone port 1 = CST MWS port 1 ("Port1")
! Touchstone port 2 = CST MWS port 2 ("Port2")
# GHz S MA R 50
30                       1.26253      -0.7802195        0.1566448       -10.36844         0.156646       -10.36719         1.262529      -0.7803653
30.01                  0.8562181       -3.011385        0.1381364       -115.2411        0.1381391       -115.2425        0.8562214       -3.011256
30.02                   1.258104      -0.8615523         0.150607       -12.16947        0.1506072       -12.16976         1.258104      -0.8615141
30.03                  0.8568777       -3.027969        0.1388829       -114.9569        0.1388822       -114.9568        0.8568762       -3.027954
30.04                   1.262716       -1.018022        0.1590583       -13.20657         0.159058        -13.2063         1.262714        -1.01805
30.05                  0.8543208       -2.906497        0.1355367       -115.6629        0.1355369        -115.663        0.8543208       -2.906645
30.06                   1.266418      -0.7428631        0.1616299       -9.435309        0.1616291       -9.435131         1.266419      -0.7429246
30.07                  0.8506795       -3.033122        0.1358886       -117.8265        0.1358891       -117.8258        0.8506788       -3.033088
30.08                   1.261197      -0.6554084        0.1527922       -9.105833        0.1527916       -9.104959         1.261198      -0.6555253
30.09                  0.8508815       -3.156058        0.1382486       -118.0412        0.1382545       -118.0415        0.8508842       -3.155707
30.1                    1.262598      -0.8781149        0.1568362       -11.66642        0.1568381        -11.6665         1.262596      -0.8781122
30.11                  0.8500528       -3.028398        0.1356862       -118.0266        0.1356891       -118.0278        0.8500571        -3.02827
30.12                   1.268631      -0.7333543        0.1643323       -9.101392         0.164334       -9.102361         1.268629      -0.7332196
30.13                  0.8459535       -3.027004        0.1338931       -120.1383        0.1338894       -120.1386        0.8459523       -3.027268
30.14                    1.26544      -0.4932631        0.1576581       -6.610629        0.1576569        -6.61067         1.265441       -0.493286
30.15                  0.8444842       -3.202618         0.136727       -121.3063        0.1367276       -121.3054        0.8444843       -3.202545
30.16                   1.263054      -0.6741291        0.1550872       -9.167928        0.1550876       -9.167628         1.263054      -0.6741351
30.17                   0.844965       -3.157657        0.1361289       -120.8916        0.1361318       -120.8917        0.8449663       -3.157539
30.18                   1.269342      -0.7053843        0.1646655        -8.75247        0.1646674       -8.752812         1.269341      -0.7053214
30.19                  0.8417462       -3.033508        0.1326528       -122.3642        0.1326519       -122.3646        0.8417456        -3.03354
30.2                    1.269742      -0.3906234        0.1632102       -5.044615        0.1632114        -5.04493         1.269741      -0.3905832
30.21                  0.8384518       -3.172089        0.1345564       -124.4824        0.1345543       -124.4829        0.8384512       -3.172292
30.22                   1.264806      -0.4460219        0.1556757       -6.138238        0.1556759       -6.138566         1.264806      -0.4460037
30.23                  0.8389328       -3.241298        0.1361239       -124.2487        0.1361207       -124.2482          0.83893       -3.241358
30.24                   1.269078       -0.611937        0.1630902        -7.75144        0.1630906       -7.750989         1.269077      -0.6120084
30.25                  0.8374684       -3.074875        0.1324745       -124.8087        0.1324728       -124.8094        0.8374694       -3.074955
30.26                   1.273065      -0.3459381        0.1675625       -4.345465        0.1675626       -4.345056         1.273065      -0.3459873
30.27                  0.8332685       -3.093887        0.1321931       -127.3719         0.132193        -127.374        0.8332725       -3.094015
30.28                   1.267991      -0.2288761        0.1592063       -3.217019        0.1592041       -3.217675         1.267993      -0.2287985
30.29                  0.8323812       -3.240743        0.1352378       -127.9507        0.1352366       -127.9496        0.8323785       -3.240657
30.3                    1.268677      -0.4436181        0.1609534       -5.825554        0.1609532       -5.825267         1.268678      -0.4436503
30.31                  0.8325359       -3.132549        0.1330287       -127.7369        0.1330289       -127.7374        0.8325365        -3.13251
30.32                   1.274834      -0.3216522        0.1696341       -3.999462        0.1696334       -3.999749         1.274835      -0.3216257
30.33                  0.8288768       -3.013426         0.130337       -129.9998        0.1303346       -129.9994        0.8288754       -3.013518
30.34                   1.272044     -0.05744905        0.1646518       -1.031118        0.1646501       -1.030667         1.272046     -0.05749421
30.35                  0.8260799       -3.147313        0.1334127       -131.7222        0.1334153       -131.7219        0.8260807       -3.147125
30.36                    1.26906      -0.2182681        0.1601278       -3.069283        0.1601271       -3.069515         1.269061      -0.2182406
30.37                  0.8266964       -3.157354        0.1336048       -131.2614        0.1336063       -131.2598        0.8266946       -3.157132
30.38                   1.275064      -0.2672751        0.1693022       -3.396448         0.169304       -3.396271         1.275063      -0.2672939
30.39                  0.8247466       -2.961812        0.1295556       -132.6109         0.129555       -132.6113        0.8247466       -2.961831
30.4                    1.276007      0.04974134        0.1701549       0.2255502        0.1701555       0.2255365         1.276006        0.049731
30.41                  0.8206621       -2.988082        0.1309806       -135.2837        0.1309781       -135.2844        0.8206623       -2.988276
30.42                    1.27077      0.03044911        0.1619473      0.01378829        0.1619453      0.01411614         1.270772       0.0304151
30.43                  0.8202753       -3.099335        0.1335218       -135.2896        0.1335246       -135.2889        0.8202762       -3.099128
30.44                   1.274382      -0.1474021        0.1674856       -2.061203        0.1674858        -2.06093         1.274382      -0.1474176
30.45                  0.8202022       -2.932243        0.1298812       -135.5645         0.129886        -135.565        0.8202057       -2.932046
30.46                   1.278886       0.1060089        0.1740156       0.8318438        0.1740168       0.8306963         1.278885       0.1061531
30.47                  0.8162689       -2.812433        0.1286368       -138.4936        0.1286322       -138.4922         0.816264       -2.812484
30.48                   1.273797       0.2617369        0.1664077        2.724084        0.1664084        2.724548         1.273796       0.2616993
30.49                  0.8140377       -2.937626        0.1324015       -139.5706        0.1324007       -139.5707        0.8140364        -2.93767
30.5                    1.273731      0.04636207         0.165836       0.1938695        0.1658366       0.1941427          1.27373      0.04632506
30.51                  0.8148607        -2.88136         0.130779       -139.1263        0.1307786       -139.1269        0.8148607       -2.881431
30.52                   1.280106       0.1513644        0.1753912        1.311662        0.1753911        1.311662         1.280105        0.151337
30.53                  0.8124705       -2.659829        0.1271604       -141.4451        0.1271595       -141.4452        0.8124709       -2.659911
30.54                   1.277559       0.4412974        0.1721814         4.59853        0.1721814        4.598803         1.277559       0.4412713
30.55                  0.8087277       -2.693903        0.1303065       -143.7832        0.1303078       -143.7838        0.8087296       -2.693917
30.56                    1.27396       0.2958612         0.166071        3.137933        0.1660712        3.137482          1.27396        0.295918
30.57                  0.8089196       -2.755594        0.1314462       -143.3329        0.1314428       -143.3327        0.8089171        -2.75571
30.58                   1.279772       0.2323096        0.1745387        2.209284         0.174538        2.209612         1.279773       0.2322814
30.59                  0.8085844       -2.535581        0.1269852       -144.4815        0.1269838       -144.4812        0.8085826       -2.535597
30.6                    1.281075       0.5565324        0.1774099        5.641205        0.1774091        5.641833         1.281076       0.5564417
30.61                  0.8046545       -2.419621        0.1277881       -147.6549        0.1277901       -147.6553        0.8046569        -2.41961
30.62                   1.275526       0.5650059         0.169079        6.165586        0.1690777        6.165791         1.275527       0.5649924
30.63                  0.8031049       -2.522916        0.1312169        -147.988        0.1312202       -147.9871        0.8031064       -2.522649
30.64                   1.278595       0.3815397        0.1726965         3.91357        0.1726976        3.913747         1.278594       0.3815202
30.65                  0.8040819       -2.404036        0.1278975       -147.9952        0.1278998       -147.9963        0.8040849       -2.404087
30.66                   1.283359       0.6251942        0.1806122        6.222596        0.1806111        6.222228          1.28336       0.6252501
30.67                  0.8015097       -2.165542        0.1257102       -151.1035        0.1257127       -151.1019        0.8015102       -2.165207
30.68                   1.278352       0.8107772        0.1743529        8.629652        0.1743546        8.629392          1.27835        0.810809
30.69                  0.7982874       -2.197046        0.1298378       -152.7563        0.1298378       -152.7556        0.7982866       -2.196952
30.7                    1.277563       0.6054117        0.1716961        6.489167        0.1716981        6.489167         1.277561       0.6054103
30.71                  0.7990146       -2.208263        0.1291427       -152.2048        0.1291422       -152.2055        0.7990147       -2.208378
30.72                   1.283868       0.6906735        0.1812506        6.882736        0.1812514        6.882518         1.283868        0.690701
30.73                   0.798576       -1.948096        0.1248732       -154.3469        0.1248721       -154.3467        0.7985748       -1.948099
30.74                   1.281738       0.9984087        0.1802341         10.2276        0.1802365        10.22757         1.281735       0.9984007
30.75                  0.7949168       -1.832998        0.1276032       -157.2626        0.1275992       -157.2648         0.794915        -1.83342
30.76                   1.277548       0.8811298        0.1731251        9.532062        0.1731232        9.532335          1.27755       0.8811057
30.77                  0.7940868       -1.908155        0.1298155       -157.0215        0.1298162       -157.0209        0.7940869       -1.908022
30.78                   1.282857       0.8018292        0.1800391        8.141186        0.1800408        8.141431         1.282855        0.801788
30.79                  0.7952297       -1.736514        0.1254486       -157.8371        0.1254475       -157.8389        0.7952303       -1.736785
30.8                    1.284569        1.122975        0.1848473        11.15405        0.1848471        11.15432          1.28457        1.122938
30.81                  0.7927174       -1.490585        0.1253498       -161.2964        0.1253512       -161.2987        0.7927205       -1.490891
30.82                   1.278859        1.164954        0.1771672         12.3599        0.1771649        12.35956         1.278861        1.165021
30.83                  0.7902027        -1.51676        0.1294121       -162.1065        0.1294131       -162.1064        0.7902036       -1.516708
30.84                   1.281225       0.9827804         0.178651        10.21035        0.1786504        10.21009         1.281226       0.9828226
30.85                  0.7914784       -1.476603        0.1268376       -161.9029        0.1268384       -161.9034        0.7914796       -1.476662
30.86                   1.286051         1.21343        0.1873002        11.87744        0.1872988        11.87678         1.286052         1.21354
30.87                  0.7910155       -1.189378        0.1238969        -164.948        0.1238947        -164.947        0.7910128       -1.189249
30.88                   1.281152        1.421991        0.1827053        14.56976        0.1827048        14.56957         1.281152        1.422025
30.89                  0.7878095       -1.084193        0.1280167        -167.131        0.1280144       -167.1301        0.7878067       -1.084099
30.9                     1.27974        1.229342        0.1784988        12.94972         0.178499        12.94985          1.27974        1.229325
30.91                  0.7878343       -1.132794        0.1283332       -166.5926        0.1283315       -166.5931         0.787833       -1.132902
30.92                   1.285876        1.302102        0.1875225        12.77995        0.1875201        12.77988         1.285878        1.302144
30.93                  0.7892268      -0.9155058        0.1237746       -168.4445        0.1237738       -168.4416        0.7892246      -0.9150694
30.94                   1.283952        1.624918         0.188448        16.02755        0.1884496        16.02779         1.283951        1.624877
30.95                  0.7868904      -0.6694861        0.1259134       -171.7682        0.1259106       -171.7675        0.7868869      -0.6693863
30.96                   1.279206        1.529867         0.180892        16.00797        0.1808928        16.00884         1.279206        1.529735
30.97                  0.7851347      -0.6960103        0.1290603       -171.8133        0.1290636       -171.8134        0.7851379      -0.6959811
30.98                   1.284056          1.4384        0.1861231        14.36505        0.1861252        14.36497         1.284053        1.438399
30.99                  0.7870074      -0.6176499        0.1251234       -172.2855        0.1251215       -172.2873        0.7870058       -0.617924
31                      1.286012        1.760509        0.1924359        16.92547        0.1924349         16.9257         1.286013        1.760491
31.01                  0.7867014      -0.3167999         0.124171         -175.81        0.1241716       -175.8102         0.786702      -0.3167842
31.02                   1.280035         1.83047         0.185667        18.64395        0.1856666        18.64393         1.280035        1.830477
31.03                  0.7840862       -0.224323        0.1286188       -177.0869        0.1286172       -177.0866        0.7840843      -0.2243128
31.04                    1.28174         1.64664        0.1852218        16.71709        0.1852215        16.71781         1.281741        1.646554
31.05                  0.7849311       -0.250821        0.1269873       -176.7163        0.1269931       -176.7162        0.7849363      -0.2507275
31.06                   1.286645        1.868267        0.1942768        17.79188        0.1942785        17.79112         1.286643         1.86835
31.07                  0.7865873    -0.006164368        0.1234573       -179.4965        0.1234534       -179.4973        0.7865833    -0.006232054
31.08                    1.28174        2.103468        0.1914567        20.67075        0.1914569        20.67103          1.28174        2.103411
31.09                  0.7845752       0.2248272        0.1272614        177.8625        0.1272604        177.8613        0.7845746       0.2246314
31.1                    1.279537        1.923378        0.1859341        19.65012        0.1859327        19.65041         1.279538         1.92336
31.11                  0.7836863       0.1934744        0.1287047         178.263        0.1287065        178.2629        0.7836879       0.1934114
31.12                    1.28536         1.97799        0.1938283        18.99659        0.1938275        18.99625         1.285361         1.97805
31.13                  0.7861116       0.3009731        0.1243289        176.8572        0.1243266        176.8579          0.78611       0.3010981
31.14                   1.283669        2.309545        0.1966083        21.97533        0.1966077        21.97558          1.28367        2.309544
31.15                  0.7859873         0.59889         0.125647        173.4095        0.1256469        173.4111        0.7859862       0.5991367
31.16                   1.278467        2.238322        0.1892669        22.55848        0.1892695        22.55862         1.278465        2.238251
31.17                  0.7840243       0.6669301         0.129412        173.0028        0.1294095        173.0015        0.7840221        0.666784
31.18                   1.282769        2.139866        0.1927091        20.88344        0.1927093        20.88401          1.28277        2.139795
31.19                  0.7856815       0.6533524        0.1262452        172.8294        0.1262452        172.8283        0.7856808       0.6532208
31.2                    1.284823         2.46255        0.2000617        22.96249        0.2000617        22.96314         1.284823        2.462457
31.21                  0.7875838       0.9084808        0.1245463        169.5083        0.1245507        169.5064        0.7875871       0.9081951
31.22                   1.278537        2.558902        0.1945136        25.06099        0.1945121        25.06046         1.278538        2.558995
31.23                  0.7859746        1.110427        0.1290082        167.8086        0.1290047        167.8081        0.7859705        1.110413
31.24                   1.279458        2.375291        0.1922991         23.5123         0.192297        23.51307         1.279461        2.375219
31.25                  0.7859636        1.068456        0.1285138        168.2181        0.1285167        168.2188        0.7859666        1.068584
31.26                   1.284242        2.583313        0.2010812        24.03506        0.2010808        24.03537         1.284243        2.583257
31.27                  0.7888584        1.194382        0.1248022        165.9159        0.1248059        165.9157        0.7888621        1.194383
31.28                   1.279354        2.836767        0.2000647        26.90085        0.2000638        26.90069         1.279354         2.83677
31.29                   0.788897         1.47373        0.1279675        163.0632        0.1279687        163.0633        0.7888985         1.47368
31.3                    1.276458         2.67088        0.1938955        26.47263        0.1938939        26.47269          1.27646         2.67089
31.31                  0.7876061        1.508341        0.1302901        163.2273        0.1302924         163.229        0.7876105        1.508608
31.32                    1.28185        2.712382        0.2003584        25.54076        0.2003601        25.54082         1.281848        2.712334
31.33                  0.7899744         1.50209        0.1264598        162.2691        0.1264631        162.2687         0.789978        1.501899
31.34                   1.280216        3.050702        0.2045987        28.18735        0.2045995        28.18683         1.280215        3.050789
31.35                  0.7920224        1.752385         0.126957        158.9562        0.1269564        158.9553        0.7920217        1.752349
31.36                    1.27449        3.000493        0.1978182        29.27023        0.1978179        29.27011         1.274489        3.000535
31.37                   0.790776        1.911286        0.1310345         158.186        0.1310341        158.1851        0.7907734        1.911214
31.38                   1.278094        2.893101        0.1993699        27.71721         0.199368        27.71724         1.278095         2.89311
31.39                  0.7915882        1.852296        0.1289245        158.2352        0.1289246        158.2357        0.7915876        1.852354
31.4                     1.28012         3.20827        0.2071855         29.2747        0.2071846        29.27501         1.280121        3.208217
31.41                  0.7948161        1.984261        0.1267427        155.3828        0.1267471        155.3832        0.7948217        1.984234
31.42                    1.27362        3.324646        0.2031119        31.56501        0.2031108        31.56429         1.273619         3.32476
31.43                  0.7949661        2.228745        0.1308118        153.4282        0.1308103        153.4291        0.7949649        2.228945
31.44                   1.273788        3.143762         0.199633        30.47001        0.1996327        30.46979         1.273788        3.143749
31.45                  0.7943513        2.223057          0.13135         153.768        0.1313479        153.7692        0.7943519        2.223208
31.46                   1.278303        3.338208         0.207659        30.56229          0.20766         30.5626         1.278302        3.338154
31.47                  0.7973134         2.21925          0.12782        152.0279        0.1278218        152.0284        0.7973157         2.21922
31.48                   1.273382         3.60484        0.2082918        33.28827        0.2082933        33.28814         1.273381        3.604859
31.49                  0.7993776        2.453612        0.1301535        149.2061        0.1301547        149.2055        0.7993778        2.453597
31.5                    1.269813        3.453259        0.2020103        33.40137        0.2020106        33.40093         1.269812        3.453279
31.51                  0.7984746        2.560548        0.1330508        149.0891         0.133049        149.0881        0.7984736        2.560511
31.52                   1.274613        3.481909        0.2068304        32.36716        0.2068284        32.36712         1.274613        3.481957
31.53                  0.8000208        2.484531        0.1300464        148.5225        0.1300446        148.5244        0.8000212        2.484841
31.54                   1.272935        3.820848        0.2120842        34.61929         0.212087        34.61943         1.272933        3.820733
31.55                  0.8034106        2.617075         0.129797        145.5848        0.1297967        145.5829        0.8034085        2.616699
31.56                   1.266744        3.788739        0.2062522        36.06507        0.2062496        36.06518         1.266746        3.788842
31.57                  0.8035605        2.815845        0.1337887        144.5219        0.1337865        144.5237        0.8035605        2.816191
31.58                   1.269553        3.675318        0.2061487        34.78418        0.2061507        34.78477         1.269552        3.675209
31.59                  0.8035775        2.768599        0.1327503        144.6722        0.1327527        144.6718        0.8035778        2.768484
31.6                     1.27136        3.978943        0.2138409         35.8794        0.2138413        35.87937          1.27136        3.978928
31.61                  0.8069649        2.766444        0.1303857        142.4009        0.1303861        142.4005        0.8069643        2.766422
31.62                   1.264638        4.109076        0.2112492        38.22106        0.2112496        38.22122         1.264637        4.109021
31.63                   0.808876         2.97561        0.1337948        140.3599        0.1337963         140.359        0.8088752        2.975426
31.64                   1.264001         3.93198        0.2069623        37.61058        0.2069607        37.61061         1.264002        3.931991
31.65                  0.8082763        3.025602        0.1351536        140.5415        0.1351536        140.5421        0.8082763        3.025592
31.66                   1.268026          4.1092        0.2137527        37.41314        0.2137534        37.41351         1.268026        4.109142
31.67                  0.8104434        2.936182        0.1321409        139.3355        0.1321449        139.3351        0.8104449        2.935934
31.68                   1.263011        4.378831        0.2156831        39.89227        0.2156821        39.89179         1.263011        4.378896
31.69                  0.8137838        3.064096        0.1336329        136.7523        0.1336317        136.7522        0.8137832        3.064019
31.7                    1.258814        4.238662        0.2097272        40.44677        0.2097259        40.44712         1.258816        4.238708
31.71                  0.8138593         3.21005        0.1367666        136.3732        0.1367701        136.3746        0.8138624        3.210083
31.72                   1.262866        4.252624        0.2128318        39.46029         0.212833        39.45965         1.262866         4.25268
31.73                  0.8144603        3.124069        0.1347295         136.096        0.1347286        136.0956         0.814461        3.124144
31.74                   1.261042        4.581863        0.2185528        41.29181        0.2185519        41.29176         1.261042        4.581893
31.75                    0.81808         3.12643         0.133952         133.672        0.1339526        133.6731         0.818082        3.126555
31.76                   1.254484        4.561747         0.213873        42.94882        0.2138746        42.94841         1.254482        4.561747
31.77                  0.8196962        3.303086        0.1375497        132.4428        0.1375491        132.4422        0.8196953        3.303108
31.78                   1.256427        4.442206        0.2124726        42.01651        0.2124728        42.01623         1.256425        4.442224
31.79                  0.8193914        3.296454        0.1374594        132.5915        0.1374569        132.5911        0.8193875        3.296528
31.8                    1.257863        4.726528        0.2195002        42.72408        0.2195003        42.72432         1.257865        4.726484
31.81                  0.8220524        3.200234         0.135201        130.9098         0.135201        130.9099        0.8220539        3.200287
31.82                   1.250986        4.861346         0.218264        44.98507        0.2182653         44.9851         1.250985        4.861271
31.83                  0.8251468        3.321401        0.1378304        128.9514         0.137831        128.9502        0.8251452        3.321169
31.84                   1.249572        4.687692        0.2136733         44.8213         0.213672        44.82128         1.249573         4.68776
31.85                  0.8251211        3.410434        0.1397131        128.9477        0.1397125        128.9477        0.8251209         3.41048
31.86                   1.252935        4.842889        0.2189632        44.47697        0.2189632        44.47706         1.252935        4.842914
31.87                  0.8262564        3.294006        0.1373946        128.1763        0.1373956        128.1758         0.826256        3.294086
31.88                   1.247829        5.104868         0.221769        46.63889        0.2217679        46.63859         1.247829        5.104868
31.89                  0.8299133        3.303921        0.1381518        125.9675        0.1381494        125.9676        0.8299135         3.30403
31.9                    1.243103        4.972834        0.2164985        47.51696        0.2164985        47.51718         1.243103        4.972792
31.91                   0.831134        3.442527        0.1412149         125.389         0.141214         125.389        0.8311343        3.442585
31.92                   1.246278         4.97019        0.2180378        46.69788         0.218038        46.69815         1.246278        4.970119
31.93                  0.8311328        3.384285        0.1400958         125.277        0.1400953        125.2768        0.8311322        3.384237
31.94                   1.244231        5.278727        0.2236615        48.12786        0.2236618        48.12835         1.244231        5.278652
31.95                  0.8341528        3.290409        0.1390444        123.4013        0.1390472        123.4009        0.8341516        3.290183
31.96                   1.237428        5.263338        0.2201956        49.85757        0.2201945        49.85754          1.23743        5.263383
31.97                  0.8368292        3.400901        0.1420691        122.1249        0.1420706        122.1249        0.8368301        3.400862
31.98                   1.238472        5.137104        0.2179286        49.29937        0.2179272        49.29903         1.238473        5.137139