! TOUCHSTONE file generated by CST MICROWAVE STUDIO
! Date and time: Fri Jan 30 17:23:11 2026
! Project name: ka_bandpassfilter_Fest3D.cst
! Header version: 2018
! Port assignment regex: !\s*Touchstone port\s*([0-9]+)\s*=\s*(CST MWS port|CST DS port)\s*([0-9]+|Zmin|Zmax)\s*\(\"(.*)\"\)(\s*mode\s*([0-9]+))?.*
! Touchstone port assignment:
! Touchstone port 1 = CST MWS port 1 ("")
! Touchstone port 2 = CST MWS port 2 ("")
# GHz S MA R 50
35.575                 0.9981744     -20.2507764   2.38227936e-06     -113.537409   2.38227935e-06     -113.537409      0.998154597     -20.2362808
35.5756              0.998170594     -20.2710223   2.39433657e-06     -113.559099   2.39433656e-06     -113.559099      0.998150758      -20.256488
35.5762              0.998166775     -20.2913027   2.40646261e-06     -113.580825    2.4064626e-06     -113.580825      0.998146906     -20.2767295
35.5768              0.998162945     -20.3116176   2.41865793e-06     -113.602587   2.41865791e-06     -113.602587      0.998143043     -20.2970055
35.5774              0.998159102     -20.3319672   2.43092295e-06     -113.624387   2.43092294e-06     -113.624387      0.998139167     -20.3173159
35.578               0.998155248     -20.3523514   2.44325813e-06     -113.646223   2.44325812e-06     -113.646223      0.998135279     -20.3376609
35.5786              0.998151381     -20.3727705   2.45566391e-06     -113.668097    2.4556639e-06     -113.668097       0.99813138     -20.3580406
35.5792              0.998147502     -20.3932246   2.46814075e-06     -113.690008   2.46814074e-06     -113.690008      0.998127468     -20.3784552
35.5798              0.998143611     -20.4137137    2.4806891e-06     -113.711956   2.48068908e-06     -113.711956      0.998123543     -20.3989046
35.5804              0.998139708     -20.4342379   2.49330941e-06     -113.733941    2.4933094e-06     -113.733941      0.998119607     -20.4193891
35.581               0.998135793     -20.4547973   2.50600215e-06     -113.755964   2.50600214e-06     -113.755964      0.998115658     -20.4399086
35.5816              0.998131865     -20.4753921   2.51876779e-06     -113.778024   2.51876777e-06     -113.778024      0.998111696     -20.4604634
35.5822              0.998127925     -20.4960224   2.53160678e-06     -113.800122   2.53160676e-06     -113.800122      0.998107722     -20.4810535
35.5828              0.998123972     -20.5166882   2.54451959e-06     -113.822258   2.54451958e-06     -113.822258      0.998103736      -20.501679
35.5834              0.998120007     -20.5373896   2.55750671e-06     -113.844432    2.5575067e-06     -113.844432      0.998099737       -20.52234
35.584                0.99811603     -20.5581269   2.57056861e-06     -113.866643    2.5705686e-06     -113.866643      0.998095725     -20.5430367
35.5846              0.998112039        -20.5789   2.58370578e-06     -113.888893   2.58370576e-06     -113.888893      0.998091701     -20.5637691
35.5852              0.998108037      -20.599709   2.59691868e-06     -113.911182   2.59691867e-06     -113.911182      0.998087664     -20.5845373
35.5858              0.998104021     -20.6205542   2.61020782e-06     -113.933508    2.6102078e-06     -113.933508      0.998083614     -20.6053414
35.5864              0.998099993     -20.6414355   2.62357368e-06     -113.955873   2.62357366e-06     -113.955873      0.998079552     -20.6261816
35.587               0.998095952     -20.6623531   2.63701676e-06     -113.978277   2.63701674e-06     -113.978277      0.998075476      -20.647058
35.5876              0.998091898     -20.6833071   2.65053755e-06     -114.000719   2.65053753e-06     -114.000719      0.998071388     -20.6679706
35.5882              0.998087831     -20.7042976   2.66413656e-06       -114.0232   2.66413654e-06       -114.0232      0.998067287     -20.6889196
35.5888              0.998083751     -20.7253248   2.67781429e-06      -114.04572   2.67781428e-06      -114.04572      0.998063172     -20.7099051
35.5894              0.998079658     -20.7463886   2.69157125e-06     -114.068279   2.69157124e-06     -114.068279      0.998059045     -20.7309271
35.59                0.998075552     -20.7674893   2.70540796e-06     -114.090877   2.70540794e-06     -114.090877      0.998054904     -20.7519859
35.5906              0.998071433      -20.788627   2.71932493e-06     -114.113515   2.71932491e-06     -114.113515       0.99805075     -20.7730814
35.5912              0.998067301     -20.8098017   2.73332267e-06     -114.136191   2.73332266e-06     -114.136191      0.998046583     -20.7942139
35.5918              0.998063156     -20.8310135   2.74740172e-06     -114.158908    2.7474017e-06     -114.158908      0.998042402     -20.8153833
35.5924              0.998058997     -20.8522627    2.7615626e-06     -114.181664   2.76156258e-06     -114.181664      0.998038209     -20.8365899
35.593               0.998054825     -20.8735492   2.77580584e-06     -114.204459   2.77580582e-06     -114.204459      0.998034001     -20.8578338
35.5936               0.99805064     -20.8948732   2.79013197e-06     -114.227295   2.79013196e-06     -114.227295      0.998029781      -20.879115
35.5942              0.998046441     -20.9162348   2.80454154e-06     -114.250171   2.80454153e-06     -114.250171      0.998025546     -20.9004336
35.5948              0.998042228     -20.9376341   2.81903509e-06     -114.273086   2.81903508e-06     -114.273086      0.998021298     -20.9217899
35.5954              0.998038002     -20.9590713   2.83361317e-06     -114.296042   2.83361315e-06     -114.296042      0.998017037     -20.9431838
35.596               0.998033763     -20.9805464   2.84827631e-06     -114.319038    2.8482763e-06     -114.319038      0.998012762     -20.9646155
35.5966              0.998029509     -21.0020596   2.86302509e-06     -114.342075   2.86302508e-06     -114.342075      0.998008473     -20.9860851
35.5972              0.998025242      -21.023611   2.87786006e-06     -114.365152   2.87786004e-06     -114.365152       0.99800417     -21.0075928
35.5978              0.998020962     -21.0452007   2.89278177e-06      -114.38827   2.89278176e-06      -114.38827      0.997999853     -21.0291386
35.5984              0.998016667     -21.0668287   2.90779081e-06     -114.411428   2.90779079e-06     -114.411428      0.997995522     -21.0507226
35.599               0.998012358     -21.0884953   2.92288773e-06     -114.434628   2.92288771e-06     -114.434628      0.997991178     -21.0723451
35.5996              0.998008036     -21.1102005   2.93807311e-06     -114.457869    2.9380731e-06     -114.457869      0.997986819      -21.094006
35.6002              0.998003699     -21.1319445   2.95334754e-06     -114.481151   2.95334753e-06      -114.48115      0.997982446     -21.1157055
35.6008              0.997999349     -21.1537274   2.96871159e-06     -114.504474   2.96871158e-06     -114.504474      0.997978059     -21.1374438
35.6014              0.997994984     -21.1755492   2.98416586e-06     -114.527838   2.98416584e-06     -114.527838      0.997973658     -21.1592208
35.602               0.997990605     -21.1974102   2.99971093e-06     -114.551244   2.99971091e-06     -114.551244      0.997969242     -21.1810369
35.6026              0.997986211     -21.2193104   3.01534739e-06     -114.574692   3.01534738e-06     -114.574692      0.997964813      -21.202892
35.6032              0.997981804     -21.2412499   3.03107586e-06     -114.598182   3.03107585e-06     -114.598182      0.997960368     -21.2247863
35.6038              0.997977382     -21.2632289   3.04689694e-06     -114.621713   3.04689693e-06     -114.621713      0.997955909     -21.2467199
35.6044              0.997972945     -21.2852475   3.06281123e-06     -114.645287   3.06281122e-06     -114.645287      0.997951436     -21.2686929
35.605               0.997968494     -21.3073057   3.07881935e-06     -114.668903   3.07881934e-06     -114.668903      0.997946948     -21.2907055
35.6056              0.997964029     -21.3294039   3.09492192e-06     -114.692561    3.0949219e-06     -114.692561      0.997942446     -21.3127578
35.6062              0.997959548     -21.3515419   3.11111956e-06     -114.716261   3.11111954e-06     -114.716261      0.997937928     -21.3348498
35.6068              0.997955054     -21.3737201   3.12741289e-06     -114.740005   3.12741287e-06     -114.740005      0.997933396     -21.3569818
35.6074              0.997950544     -21.3959384   3.14380255e-06      -114.76379   3.14380254e-06      -114.76379      0.997928849     -21.3791538
35.608               0.997946019     -21.4181971   3.16028918e-06     -114.787619   3.16028916e-06     -114.787619      0.997924287     -21.4013659
35.6086               0.99794148     -21.4404962   3.17687341e-06     -114.811491    3.1768734e-06     -114.811491       0.99791971     -21.4236183
35.6092              0.997936926     -21.4628358    3.1935559e-06     -114.835405   3.19355588e-06     -114.835405      0.997915119     -21.4459112
35.6098              0.997932356     -21.4852162   3.21033728e-06     -114.859363   3.21033727e-06     -114.859363      0.997910512     -21.4682445
35.6104              0.997927772     -21.5076373   3.22721823e-06     -114.883364   3.22721821e-06     -114.883364      0.997905889     -21.4906185
35.611               0.997923172     -21.5300994   3.24419939e-06     -114.907409   3.24419938e-06     -114.907409      0.997901252     -21.5130333
35.6116              0.997918558     -21.5526026   3.26128144e-06     -114.931498   3.26128142e-06     -114.931498      0.997896599      -21.535489
35.6122              0.997913928      -21.575147   3.27846504e-06      -114.95563   3.27846502e-06      -114.95563      0.997891931     -21.5579857
35.6128              0.997909282     -21.5977327   3.29575087e-06     -114.979806   3.29575085e-06     -114.979806      0.997887248     -21.5805236
35.6134              0.997904621     -21.6203598    3.3131396e-06     -115.004026   3.31313959e-06     -115.004026      0.997882549     -21.6031027
35.614               0.997899945     -21.6430285   3.33063193e-06      -115.02829   3.33063191e-06      -115.02829      0.997877834     -21.6257233
35.6146              0.997895253     -21.6657389   3.34822854e-06     -115.052598   3.34822852e-06     -115.052598      0.997873104     -21.6483854
35.6152              0.997890546     -21.6884912   3.36593013e-06     -115.076951   3.36593011e-06     -115.076951      0.997868358     -21.6710891
35.6158              0.997885823     -21.7112854   3.38373739e-06     -115.101349   3.38373738e-06     -115.101349      0.997863596     -21.6938347
35.6164              0.997881084     -21.7341217   3.40165104e-06     -115.125791   3.40165102e-06     -115.125791      0.997858818     -21.7166221
35.617               0.997876329     -21.7570003   3.41967178e-06     -115.150278   3.41967177e-06     -115.150278      0.997854025     -21.7394517
35.6176              0.997871559     -21.7799212   3.43780033e-06      -115.17481   3.43780032e-06      -115.17481      0.997849216     -21.7623234
35.6182              0.997866772     -21.8028846   3.45603742e-06     -115.199387    3.4560374e-06     -115.199387       0.99784439     -21.7852374
35.6188              0.997861969     -21.8258906   3.47438375e-06     -115.224009   3.47438374e-06     -115.224009      0.997839549     -21.8081939
35.6194              0.997857151     -21.8489393   3.49284008e-06     -115.248677   3.49284007e-06     -115.248677      0.997834691     -21.8311929
35.62                0.997852316      -21.872031   3.51140714e-06      -115.27339   3.51140712e-06      -115.27339      0.997829817     -21.8542347
35.6206              0.997847465     -21.8951657   3.53008566e-06     -115.298149   3.53008564e-06     -115.298149      0.997824926     -21.8773193
35.6212              0.997842598     -21.9183435    3.5488764e-06     -115.322954   3.54887638e-06     -115.322954       0.99782002     -21.9004469
35.6218              0.997837714     -21.9415647   3.56778011e-06     -115.347805    3.5677801e-06     -115.347805      0.997815096     -21.9236176
35.6224              0.997832814     -21.9648292   3.58679756e-06     -115.372702   3.58679754e-06     -115.372702      0.997810157     -21.9468316
35.623               0.997827897     -21.9881374    3.6059295e-06     -115.397645   3.60592948e-06     -115.397645        0.9978052     -21.9700889
35.6236              0.997822964     -22.0114892    3.6251767e-06     -115.422635   3.62517669e-06     -115.422635      0.997800227     -21.9933898
35.6242              0.997818014     -22.0348849   3.64453995e-06     -115.447671   3.64453994e-06     -115.447671      0.997795237     -22.0167343
35.6248              0.997813047     -22.0583246   3.66402003e-06     -115.472753   3.66402001e-06     -115.472753      0.997790231     -22.0401226
35.6254              0.997808064     -22.0818083   3.68361772e-06     -115.497883   3.68361771e-06     -115.497883      0.997785207     -22.0635549
35.626               0.997803064     -22.1053364   3.70333382e-06      -115.52306   3.70333381e-06      -115.52306      0.997780167     -22.0870312
35.6266              0.997798046     -22.1289088   3.72316913e-06     -115.548283   3.72316912e-06     -115.548283      0.997775109     -22.1105518
35.6272              0.997793012     -22.1525258   3.74312446e-06     -115.573554   3.74312444e-06     -115.573554      0.997770034     -22.1341167
35.6278              0.997787961     -22.1761874   3.76320062e-06     -115.598873    3.7632006e-06     -115.598873      0.997764942      -22.157726
35.6284              0.997782892     -22.1998939   3.78339842e-06     -115.624239    3.7833984e-06     -115.624239      0.997759833     -22.1813801
35.629               0.997777806     -22.2236454   3.80371869e-06     -115.649652   3.80371867e-06     -115.649652      0.997754706     -22.2050789
35.6296              0.997772703     -22.2474419   3.82416226e-06     -115.675114   3.82416225e-06     -115.675114      0.997749562     -22.2288226
35.6302              0.997767582     -22.2712837   3.84472998e-06     -115.700623   3.84472996e-06     -115.700623      0.997744401     -22.2526114
35.6308              0.997762444     -22.2951709   3.86542267e-06     -115.726181   3.86542265e-06     -115.726181      0.997739222     -22.2764453
35.6314              0.997757289     -22.3191037    3.8862412e-06     -115.751787   3.88624118e-06     -115.751787      0.997734025     -22.3003247
35.632               0.997752115     -22.3430821   3.90718641e-06     -115.777442    3.9071864e-06     -115.777442       0.99772881     -22.3242495
35.6326              0.997746924     -22.3671063   3.92825918e-06     -115.803145   3.92825916e-06     -115.803145      0.997723578     -22.3482199
35.6332              0.997741715     -22.3911766   3.94946037e-06     -115.828897   3.94946035e-06     -115.828897      0.997718328     -22.3722362
35.6338              0.997736489      -22.415293   3.97079085e-06     -115.854698   3.97079083e-06     -115.854698      0.997713059     -22.3962984
35.6344              0.997731244     -22.4394556   3.99225151e-06     -115.880548   3.99225149e-06     -115.880548      0.997707773     -22.4204066
35.635               0.997725981     -22.4636647   4.01384324e-06     -115.906447   4.01384322e-06     -115.906447      0.997702469     -22.4445611
35.6356                0.9977207     -22.4879203   4.03556693e-06     -115.932396   4.03556691e-06     -115.932396      0.997697146     -22.4687619
35.6362              0.997715401     -22.5122226   4.05742348e-06     -115.958394   4.05742346e-06     -115.958394      0.997691805     -22.4930093
35.6368              0.997710084     -22.5365719   4.07941381e-06     -115.984443    4.0794138e-06     -115.984443      0.997686446     -22.5173033
35.6374              0.997704748     -22.5609681   4.10153883e-06      -116.01054   4.10153882e-06      -116.01054      0.997681068     -22.5416442
35.638               0.997699394     -22.5854116   4.12379947e-06     -116.036688   4.12379945e-06     -116.036688      0.997675671      -22.566032
35.6386              0.997694021     -22.6099023   4.14619665e-06     -116.062887   4.14619663e-06     -116.062887      0.997670256      -22.590467
35.6392               0.99768863     -22.6344406   4.16873132e-06     -116.089135    4.1687313e-06     -116.089135      0.997664822     -22.6149492
35.6398               0.99768322     -22.6590265   4.19140441e-06     -116.115434   4.19140439e-06     -116.115434       0.99765937     -22.6394789
35.6404              0.997677791     -22.6836601   4.21421688e-06     -116.141784   4.21421686e-06     -116.141784      0.997653898     -22.6640562
35.641               0.997672343     -22.7083417   4.23716969e-06     -116.168185   4.23716967e-06     -116.168185      0.997648408     -22.6886811
35.6416              0.997666877     -22.7330715    4.2602638e-06     -116.194636   4.26026378e-06     -116.194636      0.997642898      -22.713354
35.6422              0.997661391     -22.7578494   4.28350019e-06     -116.221139   4.28350017e-06     -116.221139       0.99763737      -22.738075
35.6428              0.997655886     -22.7826758   4.30687984e-06     -116.247694   4.30687982e-06     -116.247694      0.997631822     -22.7628441
35.6434              0.997650362     -22.8075508   4.33040374e-06     -116.274299   4.33040372e-06     -116.274299      0.997626255     -22.7876616
35.644               0.997644819     -22.8324745   4.35407288e-06     -116.300957   4.35407287e-06     -116.300957      0.997620668     -22.8125276
35.6446              0.997639256     -22.8574471   4.37788828e-06     -116.327666   4.37788826e-06     -116.327666      0.997615062     -22.8374423
35.6452              0.997633674     -22.8824687   4.40185093e-06     -116.354427   4.40185091e-06     -116.354427      0.997609436     -22.8624058
35.6458              0.997628072     -22.9075396   4.42596186e-06     -116.381241   4.42596185e-06     -116.381241      0.997603791     -22.8874184
35.6464              0.997622451     -22.9326598   4.45022211e-06     -116.408107   4.45022209e-06     -116.408107      0.997598126     -22.9124801
35.647               0.997616809     -22.9578296   4.47463269e-06     -116.435025   4.47463267e-06     -116.435025      0.997592441     -22.9375911
35.6476              0.997611148     -22.9830491   4.49919466e-06     -116.461996   4.49919464e-06     -116.461996      0.997586736     -22.9627515
35.6482              0.997605467     -23.0083184   4.52390907e-06      -116.48902   4.52390905e-06      -116.48902      0.997581011     -22.9879617
35.6488              0.997599766     -23.0336377   4.54877697e-06     -116.516097   4.54877696e-06     -116.516097      0.997575266     -23.0132216
35.6494              0.997594045     -23.0590073   4.57379944e-06     -116.543228   4.57379943e-06     -116.543228        0.9975695     -23.0385315
35.65                0.997588304     -23.0844272   4.59897755e-06     -116.570411   4.59897754e-06     -116.570411      0.997563715     -23.0638915
35.6506              0.997582543     -23.1098976   4.62431239e-06     -116.597648   4.62431237e-06     -116.597648      0.997557909     -23.0893019
35.6512              0.997576761     -23.1354187   4.64980504e-06     -116.624939   4.64980502e-06     -116.624939      0.997552082     -23.1147627
35.6518              0.997570958     -23.1609907   4.67545661e-06     -116.652284   4.67545659e-06     -116.652284      0.997546235     -23.1402741
35.6524              0.997565135     -23.1866137   4.70126821e-06     -116.679683   4.70126819e-06     -116.679683      0.997540367     -23.1658363
35.653               0.997559291     -23.2122879   4.72724095e-06     -116.707137   4.72724094e-06     -116.707137      0.997534478     -23.1914495
35.6536              0.997553427     -23.2380135   4.75337597e-06     -116.734644   4.75337595e-06     -116.734644      0.997528569     -23.2171139
35.6542              0.997547542     -23.2637906    4.7796744e-06     -116.762207   4.77967438e-06     -116.762207      0.997522638     -23.2428295
35.6548              0.997541635     -23.2896194   4.80613738e-06     -116.789824   4.80613736e-06     -116.789824      0.997516687     -23.2685966
35.6554              0.997535708     -23.3155001   4.83276606e-06     -116.817496   4.83276604e-06     -116.817496      0.997510714     -23.2944154
35.656               0.997529759     -23.3414329   4.85956162e-06     -116.845223    4.8595616e-06     -116.845224       0.99750472      -23.320286
35.6566               0.99752379     -23.3674179   4.88652521e-06     -116.873006   4.88652519e-06     -116.873006      0.997498705     -23.3462086
35.6572              0.997517799     -23.3934553   4.91365803e-06     -116.900845   4.91365801e-06     -116.900845      0.997492668     -23.3721834
35.6578              0.997511786     -23.4195453   4.94096126e-06     -116.928739   4.94096124e-06     -116.928739       0.99748661     -23.3982105
35.6584              0.997505752      -23.445688   4.96843609e-06     -116.956688   4.96843608e-06     -116.956689       0.99748053     -23.4242901
35.659               0.997499696     -23.4718837   4.99608375e-06     -116.984695   4.99608373e-06     -116.984695      0.997474428     -23.4504224
35.6596              0.997493619     -23.4981324   5.02390544e-06     -117.012757   5.02390542e-06     -117.012757      0.997468304     -23.4766076
35.6602              0.997487519     -23.5244345    5.0519024e-06     -117.040876   5.05190238e-06     -117.040876      0.997462159     -23.5028458
35.6608              0.997481398     -23.5507901   5.08007586e-06     -117.069051   5.08007584e-06     -117.069051      0.997455991     -23.5291373
35.6614              0.997475255     -23.5771993   5.10842707e-06     -117.097284   5.10842705e-06     -117.097284      0.997449801     -23.5554822
35.662               0.997469089     -23.6036623   5.13695728e-06     -117.125573   5.13695726e-06     -117.125573      0.997443589     -23.5818806
35.6626              0.997462901     -23.6301793   5.16566776e-06      -117.15392   5.16566774e-06      -117.15392      0.997437354     -23.6083328
35.6632              0.997456691     -23.6567506   5.19455979e-06     -117.182324   5.19455977e-06     -117.182324      0.997431097      -23.634839
35.6638              0.997450458     -23.6833762   5.22363465e-06     -117.210785   5.22363464e-06     -117.210785      0.997424818     -23.6613993
35.6644              0.997444203     -23.7100564   5.25289365e-06     -117.239305   5.25289363e-06     -117.239305      0.997418515     -23.6880139
35.665               0.997437925     -23.7367913   5.28233809e-06     -117.267882   5.28233807e-06     -117.267882       0.99741219      -23.714683
35.6656              0.997431625     -23.7635812   5.31196928e-06     -117.296518   5.31196926e-06     -117.296518      0.997405842     -23.7414068
35.6662              0.997425301     -23.7904262   5.34178855e-06     -117.325212   5.34178853e-06     -117.325212      0.997399471     -23.7681855
35.6668              0.997418954     -23.8173265   5.37179724e-06     -117.353965   5.37179722e-06     -117.353965      0.997393077     -23.7950192
35.6674              0.997412585     -23.8442823   5.40199671e-06     -117.382776   5.40199669e-06     -117.382776       0.99738666     -23.8219082
35.668               0.997406192     -23.8712938    5.4323883e-06     -117.411647   5.43238828e-06     -117.411647      0.997380219     -23.8488526
35.6686              0.997399775     -23.8983612   5.46297339e-06     -117.440577   5.46297338e-06     -117.440577      0.997373755     -23.8758526
35.6692              0.997393335     -23.9254846   5.49375337e-06     -117.469566   5.49375335e-06     -117.469566      0.997367267     -23.9029084
35.6698              0.997386872     -23.9526643   5.52472961e-06     -117.498615    5.5247296e-06     -117.498615      0.997360755     -23.9300203
35.6704              0.997380385     -23.9799005   5.55590354e-06     -117.527723   5.55590352e-06     -117.527723       0.99735422     -23.9571883
35.671               0.997373874     -24.0071933   5.58727655e-06     -117.556892   5.58727653e-06     -117.556892      0.997347661     -23.9844127
35.6716               0.99736734      -24.034543   5.61885008e-06      -117.58612   5.61885006e-06      -117.58612      0.997341078     -24.0116937
35.6722              0.997360781     -24.0619497   5.65062556e-06      -117.61541   5.65062554e-06      -117.61541       0.99733447     -24.0390315
35.6728              0.997354198     -24.0894137   5.68260444e-06     -117.644759   5.68260442e-06     -117.644759      0.997327839     -24.0664262
35.6734              0.997347591     -24.1169351   5.71478819e-06      -117.67417   5.71478817e-06      -117.67417      0.997321183     -24.0938781
35.674                0.99734096     -24.1445141   5.74717826e-06     -117.703642   5.74717824e-06     -117.703642      0.997314503     -24.1213874
35.6746              0.997334304      -24.172151   5.77977615e-06     -117.733175   5.77977613e-06     -117.733175      0.997307798     -24.1489542
35.6752              0.997327623     -24.1998458   5.81258335e-06     -117.762769   5.81258334e-06     -117.762769      0.997301068     -24.1765788
35.6758              0.997320918      -24.227599   5.84560137e-06     -117.792425   5.84560136e-06     -117.792425      0.997294313     -24.2042614
35.6764              0.997314188     -24.2554105   5.87883173e-06     -117.822143   5.87883171e-06     -117.822143      0.997287534     -24.2320021
35.677               0.997307433     -24.2832808   5.91227596e-06     -117.851923   5.91227594e-06     -117.851923      0.997280729     -24.2598011
35.6776              0.997300653     -24.3112098    5.9459356e-06     -117.881765   5.94593558e-06     -117.881765      0.997273899     -24.2876588
35.6782              0.997293848     -24.3391979   5.97981221e-06      -117.91167   5.97981219e-06      -117.91167      0.997267044     -24.3155752
35.6788              0.997287017     -24.3672453   6.01390735e-06     -117.941638   6.01390733e-06     -117.941638      0.997260164     -24.3435506
35.6794              0.997280161     -24.3953521   6.04822261e-06     -117.971668   6.04822259e-06     -117.971668      0.997253258     -24.3715851
35.68                0.997273279     -24.4235186   6.08275959e-06     -118.001762   6.08275957e-06     -118.001762      0.997246326     -24.3996791
35.6806              0.997266372      -24.451745   6.11751988e-06     -118.031919   6.11751986e-06     -118.031919      0.997239368     -24.4278326
35.6812              0.997259439     -24.4800314   6.15250512e-06      -118.06214    6.1525051e-06      -118.06214      0.997232385     -24.4560459
35.6818               0.99725248     -24.5083782   6.18771692e-06     -118.092425    6.1877169e-06     -118.092425      0.997225375     -24.4843193
35.6824              0.997245495     -24.5367855   6.22315695e-06     -118.122773   6.22315693e-06     -118.122773      0.997218339     -24.5126529
35.683               0.997238484     -24.5652535   6.25882685e-06     -118.153186   6.25882683e-06     -118.153186      0.997211277     -24.5410469
35.6836              0.997231446     -24.5937824    6.2947283e-06     -118.183664   6.29472828e-06     -118.183664      0.997204189     -24.5695015
35.6842              0.997224382     -24.6223725   6.33086299e-06     -118.214206   6.33086297e-06     -118.214206      0.997197074      -24.598017
35.6848              0.997217292      -24.651024   6.36723261e-06     -118.244813   6.36723259e-06     -118.244813      0.997189932     -24.6265936
35.6854              0.997210175     -24.6797371   6.40383889e-06     -118.275485   6.40383887e-06     -118.275485      0.997182763     -24.6552315
35.686                0.99720303     -24.7085119   6.44068354e-06     -118.306223   6.44068352e-06     -118.306223      0.997175568     -24.6839308
35.6866              0.997195859     -24.7373488   6.47776831e-06     -118.337027   6.47776829e-06     -118.337027      0.997168345     -24.7126919
35.6872              0.997188661     -24.7662479   6.51509496e-06     -118.367896   6.51509494e-06     -118.367896      0.997161095      -24.741515
35.6878              0.997181436     -24.7952095   6.55266525e-06     -118.398831   6.55266524e-06     -118.398831      0.997153818     -24.7704002
35.6884              0.997174183     -24.8242338   6.59048098e-06     -118.429833   6.59048096e-06     -118.429833      0.997146513     -24.7993477
35.689               0.997166903      -24.853321   6.62854394e-06     -118.460901   6.62854392e-06     -118.460901      0.997139181     -24.8283579
35.6896              0.997159595     -24.8824713   6.66685593e-06     -118.492036   6.66685591e-06     -118.492036      0.997131821     -24.8574309
35.6902              0.997152259      -24.911685   6.70541881e-06     -118.523238   6.70541879e-06     -118.523238      0.997124433      -24.886567
35.6908              0.997144896     -24.9409623   6.74423439e-06     -118.554508   6.74423437e-06     -118.554508      0.997117017     -24.9157663
35.6914              0.997137504     -24.9703034   6.78330456e-06     -118.585845   6.78330454e-06     -118.585845      0.997109573     -24.9450291
35.692               0.997130085     -24.9997085   6.82263117e-06      -118.61725   6.82263115e-06      -118.61725        0.9971021     -24.9743557
35.6926              0.997122636     -25.0291779   6.86221612e-06     -118.648722    6.8622161e-06     -118.648722      0.997094599     -25.0037462
35.6932               0.99711516     -25.0587118   6.90206131e-06     -118.680263   6.90206129e-06     -118.680263       0.99708707     -25.0332008
35.6938              0.997107655     -25.0883104   6.94216867e-06     -118.711873   6.94216865e-06     -118.711873      0.997079511     -25.0627199