! TOUCHSTONE file generated by CST MICROWAVE STUDIO
! Date and time: Mon Jan 19 02:11:50 2026
! Project name: CSRR_WR28_Lorentz.cst
! Header version: 2018
! Port assignment regex: !\s*Touchstone port\s*([0-9]+)\s*=\s*(CST MWS port|CST DS port)\s*([0-9]+|Zmin|Zmax)\s*\(\"(.*)\"\)(\s*mode\s*([0-9]+))?.*
! Touchstone port assignment:
! Touchstone port 1 = CST MWS port 1 ("Port1")
! Touchstone port 2 = CST MWS port 2 ("Port2")
# GHz S MA R 50
30                     0.8736133        -26.5058        0.4835473        -116.755        0.4835473        -116.755        0.8736071       -26.63152
30.01                  0.8717943       -26.94609         0.490242       -117.0311         0.490242       -117.0311        0.8717956       -27.16107
30.02                  0.8688428       -27.39855        0.4965208       -117.4335        0.4965209       -117.4335        0.8688485       -27.64347
30.03                  0.8645431        -27.8568        0.5023051       -117.9755        0.5023051       -117.9755        0.8645423       -28.06307
30.04                   0.859022       -28.31496        0.5076827        -118.634        0.5076827        -118.634        0.8590145       -28.42327
30.05                  0.8527166       -28.77071        0.5129062       -119.3557        0.5129062       -119.3557        0.8527202       -28.74768
30.06                  0.8462526       -29.22746        0.5183405       -120.0728        0.5183405       -120.0728        0.8462885       -29.07608
30.07                  0.8402668       -29.69393         0.524364       -120.7221         0.524364       -120.7221        0.8403372       -29.45426
30.08                  0.8352296       -30.18088        0.5312497       -121.2626        0.5312497       -121.2626        0.8353101       -29.91984
30.09                   0.831304       -30.69709         0.539076       -121.6873         0.539076       -121.6873        0.8313615       -30.48955
30.1                   0.8282898       -31.24605        0.5476954       -122.0258        0.5476954       -122.0258        0.8283092         -31.153
30.11                  0.8256605       -31.82514        0.5567735       -122.3362        0.5567735       -122.3362        0.8256544       -31.87566
30.12                  0.8226973       -32.42644        0.5658765       -122.6893        0.5658765       -122.6893        0.8226895       -32.60916
30.13                  0.8186853       -33.03885        0.5745853       -123.1492        0.5745853       -123.1492        0.8186868        -33.3049
30.14                  0.8131274       -33.65017        0.5826028       -123.7537        0.5826028       -123.7537        0.8131297        -33.9263
30.15                  0.8058946       -34.25071        0.5898477       -124.5043        0.5898477       -124.5043        0.8058869       -34.45885
30.16                  0.7972718       -34.83731        0.5965004        -125.365        0.5965004        -125.365        0.7972624       -34.91584
30.17                  0.7878729       -35.41696        0.6029844       -126.2738        0.6029844       -126.2738        0.7878897       -35.33863
30.18                  0.7784605       -36.00706        0.6098652       -127.1603        0.6098652       -127.1603        0.7785259       -35.78855
30.19                  0.7697248       -36.63106        0.6176893       -127.9661        0.6176893       -127.9661        0.7698295       -36.33035
30.2                   0.7620938       -37.31028        0.6268124       -128.6607        0.6268124       -128.6607        0.7621978       -37.01159
30.21                   0.755607       -38.05627        0.6372851       -129.2505        0.6372851       -129.2505        0.7556699        -37.8463
30.22                  0.7498912       -38.86597         0.648819       -129.7767         0.648819       -129.7767        0.7499036       -38.80848
30.23                  0.7442317       -39.72256        0.6608573       -130.3052        0.6608572       -130.3052        0.7442178       -39.83932
30.24                  0.7377547       -40.59948        0.6727076        -130.908        0.6727076        -130.908        0.7377442       -40.86315
30.25                  0.7296772       -41.46696        0.6837232       -131.6425        0.6837232       -131.6425        0.7296768       -41.80773
30.26                  0.7195466       -42.29967        0.6934887       -132.5349        0.6934887       -132.5349        0.7195414       -42.62335
30.27                  0.7073935       -43.08442        0.7019598       -133.5718        0.7019598       -133.5718         0.707376       -43.29736
30.28                  0.6937187       -43.82782        0.7095216       -134.7055        0.7095216       -134.7055        0.6937124        -43.8629
30.29                  0.6793261       -44.55916        0.7169118       -135.8688        0.7169118       -135.8688        0.6793729        -44.3965
30.3                   0.6650701       -45.32551        0.7250204       -136.9953        0.7250204       -136.9953        0.6651904       -45.00137
30.31                  0.6516097       -46.17889        0.7346299        -138.038        0.7346298        -138.038        0.6517733       -45.77883
30.32                  0.6392392       -47.15888        0.7461724       -138.9817        0.7461725       -138.9817         0.639381       -46.79569
30.33                  0.6278104       -48.27737        0.7595777       -139.8466        0.7595777       -139.8466        0.6278804       -48.05947
30.34                  0.6167525       -49.51253        0.7742631       -140.6831        0.7742631       -140.6831        0.6167526       -49.51207
30.35                  0.6051941        -50.8123        0.7892529       -141.5581        0.7892529       -141.5581        0.6051673       -51.04249
30.36                  0.5921926       -52.10617        0.8034118       -142.5356        0.8034118       -142.5356         0.592176       -52.51485
30.37                  0.5770224       -53.32302        0.8157588       -143.6574        0.8157588       -143.6574        0.5770145       -53.80395
30.38                  0.5594272       -54.41007        0.8257697       -144.9308        0.8257697       -144.9308         0.559405       -54.82906
30.39                  0.5397104        -55.3522        0.8335846       -146.3268        0.8335846       -146.3268        0.5396779       -55.58198
30.4                   0.5186073       -56.18441          0.84001       -147.7913          0.84001       -147.7913        0.5186185       -56.14093
30.41                  0.4970067       -56.99176        0.8463024        -149.263        0.8463024        -149.263        0.4971282       -56.66259
30.42                  0.4756552       -57.89144        0.8537946       -150.6917        0.8537945       -150.6917         0.475898       -57.34672
30.43                  0.4549684       -59.00009         0.863497       -152.0515         0.863497       -152.0515        0.4552575       -58.38039
30.44                  0.4349645       -60.39489        0.8757818        -153.346        0.8757818        -153.346        0.4351849       -59.87748
30.45                  0.4153074       -62.08357        0.8902438       -154.6055        0.8902438       -154.6055        0.4153906        -61.8351
30.46                  0.3953757       -63.99035        0.9057457       -155.8778        0.9057457       -155.8778        0.3953476        -64.1179
30.47                  0.3744181       -65.96488        0.9206698       -157.2139        0.9206698       -157.2139          0.37436       -66.47878
30.48                   0.351774       -67.81088        0.9333355       -158.6511        0.9333356       -158.6511        0.3517362       -68.61094
30.49                  0.3271212       -69.33117        0.9425095       -160.2017        0.9425094       -160.2017        0.3270835       -70.22041
30.5                   0.3006397       -70.37828        0.9478268       -161.8491        0.9478267       -161.8491        0.3005662       -71.10134
30.51                  0.2729381       -70.90328        0.9499519       -163.5567        0.9499518       -163.5567        0.2728755       -71.20412
30.52                  0.2447802       -70.98786        0.9503798       -165.2814        0.9503796       -165.2814        0.2448827       -70.67967
30.53                   0.216747       -70.84458        0.9509564       -166.9884        0.9509563       -166.9884        0.2171725       -69.87757
30.54                  0.1890326       -70.77595        0.9533114       -168.6601        0.9533114       -168.6601        0.1897831       -69.28038
30.55                  0.1614745       -71.10023        0.9583903        -170.298        0.9583902        -170.298        0.1623302       -69.39192
30.56                  0.1337518       -72.06086        0.9661882       -171.9185        0.9661882       -171.9185        0.1343796       -70.62394
30.57                  0.1055947        -73.7266        0.9757249       -173.5456        0.9757249       -173.5456        0.1057636       -73.21127
30.58                 0.07690115       -75.83385        0.9852649       -175.2012        0.9852649       -175.2012       0.07663253       -77.14197
30.59                 0.04776024       -77.24575        0.9927757       -176.8961        0.9927757       -176.8961       0.04725343       -82.04828
30.6                  0.01866879       -70.51741        0.9965291       -178.6247        0.9965291       -178.6248       0.01775788       -86.37852
30.61                 0.01353774        60.71935         0.995674        179.6319         0.995674        179.6319       0.01198686        80.97759
30.62                 0.04250112        74.31869        0.9905273        177.8983        0.9905273        177.8983        0.0418912        78.36765
30.63                 0.07193898        74.12053         0.982456        176.1932        0.9824559        176.1932       0.07183102           74.53
30.64                  0.1009146        72.94564        0.9733982        174.5221        0.9733982        174.5221        0.1013521        71.79461
30.65                  0.1292393        72.11838        0.9652496        172.8769        0.9652496        172.8769         0.130053        70.37153
30.66                  0.1569997         71.8471        0.9593375        171.2408        0.9593375        171.2408        0.1578581        70.12083
30.67                  0.1844769        72.00272        0.9561087        169.5964        0.9561087        169.5964        0.1850851        70.70121
30.68                  0.2119657        72.31487        0.9550604        167.9332        0.9550604        167.9332        0.2122233        71.64754
30.69                  0.2395611        72.48214        0.9549042        166.2535        0.9549042        166.2535        0.2395647        72.46889
30.7                   0.2670148        72.25984        0.9539446        164.5749        0.9539446        164.5749        0.2669302        72.76385
30.71                  0.2938093        71.51723        0.9505819        162.9261        0.9505818        162.9261        0.2937377        72.30681
30.72                  0.3193818        70.25573        0.9438119        161.3387        0.9438118        161.3387        0.3193281        71.07558
30.73                  0.3433864         68.5893        0.9335322        159.8353        0.9335322        159.8353        0.3433248        69.22234
30.74                   0.365837         66.7007        0.9205369        158.4202        0.9205369        158.4202        0.3657828         67.0112
30.75                  0.3870832        64.78897        0.9062137        157.0765        0.9062137        157.0765        0.3870959        64.74241
30.76                  0.4076361        63.02303        0.8921011        155.7719        0.8921011        155.7719        0.4077603        62.68064
30.77                   0.428002        61.50729        0.8794511        154.4696         0.879451        154.4696        0.4282158        60.99832
30.78                  0.4485447         60.2685        0.8689387        153.1396        0.8689387        153.1396        0.4487671         59.7491
30.79                  0.4693913        59.26184        0.8605454        151.7688        0.8605454        151.7688         0.469542        58.87223
30.8                   0.4903894        58.39454        0.8536274        150.3651        0.8536274        150.3651        0.4904416        58.22475
30.81                  0.5111196        57.55765        0.8471312         148.956        0.8471312        148.9559        0.5111044        57.62965
30.82                  0.5309795         56.6583        0.8399191        147.5821         0.839919        147.5821        0.5309451        56.92777
30.83                  0.5493775        55.64223        0.8311066        146.2854        0.8311065        146.2854        0.5493489        56.01728
30.84                  0.5659412        54.50136        0.8203083        145.0956        0.8203083        145.0956        0.5659151         54.8713
30.85                  0.5806638        53.26834        0.8077225        144.0202        0.8077225        144.0202        0.5806347        53.53405
30.86                  0.5939099        52.00083        0.7940199        143.0415        0.7940199        143.0415        0.5938923        52.09937
30.87                  0.6062855        50.76361        0.7801174        142.1216        0.7801174        142.1216        0.6063066        50.68186
30.88                  0.6184435        49.61094        0.7669049        141.2144        0.7669049        141.2144        0.6185164        49.38538
30.89                  0.6308952        48.57432        0.7550214        140.2789        0.7550214        140.2789        0.6310008        48.27766
30.9                   0.6438909        47.65654        0.7447134        139.2911        0.7447134        139.2911        0.6439888        47.37534
30.91                   0.657375        46.83453        0.7358106        138.2496        0.7358106        138.2496        0.6574325        46.64465
30.92                  0.6710117        46.06887        0.7278049        137.1762        0.7278049        137.1762        0.6710241        46.01558
30.93                  0.6842784        45.31713        0.7200168        136.1094        0.7200168        136.1094        0.6842647        45.40519
30.94                  0.6966162        44.54648        0.7118012        135.0937        0.7118011        135.0937        0.6965975        44.74199
30.95                  0.7075991        43.74072         0.702723        134.1666         0.702723        134.1665        0.7075832         43.9832
30.96                  0.7170698        42.90177        0.6926627        133.3467        0.6926627        133.3468        0.7170537        43.12211
30.97                  0.7251903        42.04596        0.6818213        132.6289        0.6818213        132.6289        0.7251745        42.18536
30.98                  0.7323857        41.19705        0.6706289        131.9849        0.6706289        131.9849        0.7323813        41.22207
30.99                  0.7392099        40.37937        0.6596127        131.3726        0.6596127        131.3726        0.7392308        40.28965
31                     0.7461815        39.61122        0.6492474        130.7481        0.6492474        130.7481        0.7462297        39.43792
31.01                  0.7536503        38.90076        0.6398401         130.078        0.6398401         130.078        0.7537103        38.69643
31.02                  0.7617155        38.24442        0.6314608        129.3482        0.6314608        129.3482        0.7617645        38.06729
31.03                  0.7702206        37.62892        0.6239409         128.567        0.6239408         128.567        0.7702444        37.52643
31.04                   0.778807        37.03647        0.6169401        127.7625        0.6169401        127.7625        0.7788076        37.03277
31.05                  0.7870228        36.45012        0.6100481        126.9738        0.6100482        126.9738        0.7870124        36.54081
31.06                   0.794451        35.85894        0.6029096        126.2402        0.6029096        126.2402        0.7944396        36.01409
31.07                  0.8008329        35.25971        0.5953121        125.5899        0.5953122        125.5899        0.8008226        35.43344
31.08                  0.8061416        34.65632        0.5872303        125.0316        0.5872303        125.0315        0.8061309        34.80001
31.09                  0.8105833        34.05724         0.578812        124.5522         0.578812        124.5522        0.8105747        34.13273
31.1                   0.8145326        33.47257        0.5703244        124.1215        0.5703245        124.1215        0.8145343        33.46208
31.11                  0.8184188        32.91088        0.5620707        123.7001        0.5620707        123.7001        0.8184375         32.8211
31.12                  0.8226062        32.37735        0.5543118        123.2518        0.5543118        123.2518        0.8226395        32.23666
31.13                   0.827299        31.87239        0.5471997        122.7525        0.5471997        122.7525        0.8273352        31.72216
31.14                  0.8324999        31.39171        0.5407405        122.1969        0.5407405        122.1969        0.8325257        31.27415
31.15                  0.8380203        30.92804        0.5348034        121.5992        0.5348034        121.5992        0.8380299        30.87435
31.16                  0.8435436        30.47362         0.529165        120.9883        0.5291651        120.9883        0.8435407         30.4958
31.17                   0.848718        30.02259        0.5235774        120.3998        0.5235773        120.3998        0.8487103        30.11117
31.18                  0.8532573        29.57267        0.5178395        119.8653        0.5178395        119.8653        0.8532497        29.70037
31.19                  0.8570206        29.12485        0.5118428         119.404        0.5118428         119.404        0.8570134        29.25485
31.2                    0.860048         28.6826         0.505593        119.0171         0.505593        119.0171        0.8600408        28.77892
31.21                   0.862544        28.25015        0.4991957        118.6878        0.4991957        118.6878        0.8625399        28.28739
31.22                  0.8648142        27.83104        0.4928191        118.3867        0.4928191        118.3867        0.8648187          27.801
31.23                  0.8671772         27.4273        0.4866488        118.0801        0.4866488        118.0801        0.8671931        27.34074
31.24                  0.8698756        27.03888        0.4808359        117.7395        0.4808359        117.7395        0.8698991        26.92196
31.25                  0.8730159        26.66373        0.4754589        117.3494        0.4754589        117.3494        0.8730383        26.55021
31.26                  0.8765468        26.29851        0.4705047        116.9109        0.4705047        116.9109        0.8765604        26.21993
31.27                  0.8802813        25.93958        0.4658761         116.441        0.4658761         116.441        0.8802845        25.91652
31.28                  0.8839566        25.58435        0.4614247        115.9673        0.4614247        115.9673         0.883953        25.62111
31.29                  0.8873107        25.23199        0.4569945        115.5202        0.4569945        115.5202        0.8873051        25.31618
31.3                   0.8901545        24.88358        0.4524655        115.1238        0.4524656        115.1238        0.8901491         24.9902
31.31                   0.892423        24.54135        0.4477802          114.79        0.4477801          114.79        0.8924177        24.64014
31.32                  0.8941903        24.20778        0.4429528        114.5146        0.4429528        114.5146        0.8941855         24.2716
31.33                  0.8956429        23.88444        0.4380581        114.2794        0.4380581        114.2794        0.8956416        23.89665
31.34                  0.8970257         23.5717        0.4332089        114.0574        0.4332089        114.0574        0.8970314        23.53044
31.35                  0.8985712        23.26855        0.4285249        113.8208        0.4285249        113.8208        0.8985845        23.18694
31.36                   0.900437        22.97295        0.4241001         113.548        0.4241002         113.548        0.9004537        22.87509
31.37                  0.9026654        22.68241        0.4199775        113.2303        0.4199775        113.2303        0.9026794        22.59621
31.38                  0.9051778        22.39469        0.4161386        112.8732        0.4161386        112.8732        0.9051848        22.34389
31.39                  0.9078024        22.10854        0.4125122        112.4948        0.4125122        112.4948        0.9078026        22.10619
31.4                    0.910327        21.82406        0.4089954        112.1202        0.4089953        112.1202        0.9103236        21.86928
31.41                  0.9125591        21.54277        0.4054857        111.7743        0.4054857        111.7743        0.9125549        21.62153
31.42                  0.9143792        21.26692         0.401906        111.4748         0.401906        111.4748        0.9143752        21.35638
31.43                  0.9157712        20.99887        0.3982245        111.2277        0.3982245        111.2277        0.9157672         21.0739
31.44                  0.9168235         20.7399        0.3944549        111.0254        0.3944549        111.0254        0.9168206        20.78005
31.45                  0.9177018        20.49009        0.3906534        110.8496        0.3906534        110.8496        0.9177024        20.48507
31.46                  0.9186008        20.24798        0.3868984        110.6765        0.3868984        110.6765        0.9186068        20.20033
31.47                  0.9196888        20.01126        0.3832729        110.4833        0.3832729        110.4833        0.9196997        19.93543
31.48                  0.9210634        19.77722        0.3798387        110.2548        0.3798387        110.2548        0.9210753        19.69522
31.49                  0.9227256        19.54371         0.376622        109.9873         0.376622        109.9873        0.9227343        19.47869
31.5                   0.9245853        19.30952        0.3736043        109.6891        0.3736043        109.6891        0.9245887         19.2792
31.51                  0.9264898        19.07492        0.3707314        109.3782        0.3707314        109.3782        0.9264888        19.08677
31.52                  0.9282691        18.84151        0.3679296        109.0767        0.3679297        109.0766        0.9282661        18.89105
31.53                  0.9297844        18.61182        0.3651274        108.8045        0.3651274        108.8045        0.9297812        18.68422
31.54                  0.9309649        18.38843        0.3622725        108.5741        0.3622725        108.5741        0.9309618        18.46297
31.55                  0.9318252         18.1732        0.3593447        108.3868        0.3593447        108.3868        0.9318223        18.22907
31.56                   0.932459        17.96662        0.3563575        108.2332        0.3563575        108.2332        0.9324574        17.98865
31.57                  0.9330109        17.76761        0.3533532        108.0956        0.3533532        108.0956        0.9330126        17.75036
31.58                  0.9336352        17.57384        0.3503911        107.9533        0.3503912        107.9533         0.933641          17.523
31.59                  0.9344523        17.38241        0.3475315        107.7883        0.3475315        107.7883         0.934461          17.313
31.6                    0.935517        17.19066        0.3448188        107.5904        0.3448188        107.5904        0.9355254        17.12263
31.61                  0.9368047        16.99693        0.3422692        107.3597        0.3422692        107.3597        0.9368099        16.94936
31.62                  0.9382221        16.80097        0.3398666        107.1062        0.3398666        107.1062        0.9382234        16.78672
31.63                  0.9396357        16.60404        0.3375684        106.8471        0.3375685        106.8471        0.9396342         16.6263
31.64                  0.9409112        16.40852        0.3353184        106.6012        0.3353184        106.6012        0.9409088        16.46022
31.65                  0.9419504        16.21729        0.3330636        106.3841        0.3330636        106.3841        0.9419479        16.28341
31.66                  0.9427171         16.0328        0.3307658        106.2037        0.3307658        106.2037        0.9427146        16.09464
31.67                  0.9432456        15.85637        0.3284112        106.0584        0.3284113        106.0584        0.9432434         15.8968
31.68                  0.9436289        15.68767        0.3260116        105.9373        0.3260116        105.9373        0.9436283        15.69584
31.69                  0.9439921        15.52491        0.3236009        105.8242        0.3236009        105.8242        0.9439944        15.49917
31.7                   0.9444567        15.36529        0.3212262        105.7015        0.3212262        105.7015        0.9444621        15.31354
31.71                   0.945107        15.20578        0.3189346        105.5553        0.3189346        105.5553        0.9451139        15.14311
31.72                  0.9459669          15.044        0.3167596        105.3794        0.3167596        105.3794        0.9459727         14.9883
31.73                  0.9469954         14.8789        0.3147124        105.1768        0.3147124        105.1768        0.9469984        14.84569
31.74                  0.9481012        14.71097        0.3127783        104.9582        0.3127783        104.9582        0.9481013        14.70908
31.75                   0.949169        14.54216        0.3109226        104.7394        0.3109226        104.7394        0.9491674        14.57145
31.76                  0.9500934        14.37521        0.3091002        104.5363        0.3091002        104.5363        0.9500914        14.42687
31.77                  0.9508075        14.21308        0.3072695        104.3606        0.3072695        104.3606        0.9508055        14.27224
31.78                  0.9512999        14.05784        0.3054005        104.2168        0.3054005        104.2168         0.951298        14.10785
31.79                   0.951617        13.91021         0.303483        104.1007         0.303483        104.1007        0.9516156        13.93723
31.8                   0.9518483        13.76929        0.3015282        104.0015        0.3015282        104.0015        0.9518485        13.76611
31.81                  0.9521011        13.63277         0.299565        103.9042         0.299565        103.9041        0.9521038        13.60076
31.82                  0.9524701        13.49764         0.297633        103.7941         0.297633        103.7941        0.9524749        13.44626
31.83                  0.9530113        13.36099         0.295771        103.6612         0.295771        103.6612        0.9530167        13.30504
31.84                  0.9537267        13.22089        0.2940066        103.5023        0.2940066        103.5023        0.9537307        13.17621
31.85                  0.9545657        13.07685        0.2923471        103.3222        0.2923471        103.3222        0.9545672         13.0558
31.86                  0.9554409        12.92998         0.290779        103.1319         0.290779        103.1319        0.9554404        12.93803
31.87                  0.9562544        12.78267        0.2892722        102.9455        0.2892722        102.9455        0.9562529        12.81702
31.88                  0.9569244        12.63785        0.2877889        102.7762        0.2877889        102.7762        0.9569228        12.68846
31.89                  0.9574088        12.49826        0.2862936        102.6322        0.2862937        102.6322        0.9574071        12.55074
31.9                    0.957714        12.36556        0.2847621        102.5153         0.284762        102.5153        0.9577125        12.40524
31.91                  0.9578936        12.23993        0.2831863        102.4199        0.2831863        102.4199        0.9578928        12.25589
31.92                   0.958032        12.11994        0.2815771        102.3352        0.2815771        102.3352        0.9580328        12.10805
31.93                  0.9582204        12.00293        0.2799607         102.248        0.2799607         102.248        0.9582231        11.96694
31.94                  0.9585313        11.88585        0.2783723        102.1464        0.2783723        102.1464        0.9585354        11.83628
31.95                  0.9589983        11.76605        0.2768458        102.0232        0.2768458        102.0232        0.9590023        11.71711
31.96                  0.9596076        11.64204        0.2754037        101.8779        0.2754037        101.8779        0.9596102        11.60753
31.97                   0.960303        11.51392        0.2740514        101.7163        0.2740515        101.7163        0.9603036        11.50333
31.98                  0.9610029        11.38327        0.2727754        101.5493        0.2727754        101.5493        0.9610022         11.3992